# vtk DataFile Version 4.1
vtk output
ASCII
DATASET UNSTRUCTURED_GRID
POINTS 13895 float
0 0 10 0 0 0 0 10 10 
0 10 0 10 0 10 10 0 0 
10 10 10 10 10 0 30 0 10 
30 0 0 30 10 10 30 10 0 
10 0 20 10 10 20 30 0 20 
30 10 20 0 0 1.42857 0 0 2.85714 
0 0 4.28571 0 0 5.71429 0 0 7.14286 
0 0 8.57143 0 0 0.714286 0 0 2.14286 
0 0 3.57143 0 0 5 0 0 6.42857 
0 0 7.85714 0 0 9.28571 0 1.42857 10 
0 2.85714 10 0 4.28571 10 0 5.71429 10 
0 7.14286 10 0 8.57143 10 0 0.714286 10 
0 2.14286 10 0 3.57143 10 0 5 10 
0 6.42857 10 0 7.85714 10 0 9.28571 10 
0 10 1.42857 0 10 2.85714 0 10 4.28571 
0 10 5.71429 0 10 7.14286 0 10 8.57143 
0 10 0.714286 0 10 2.14286 0 10 3.57143 
0 10 5 0 10 6.42857 0 10 7.85714 
0 10 9.28571 0 1.42857 0 0 2.85714 0 
0 4.28571 0 0 5.71429 0 0 7.14286 0 
0 8.57143 0 0 0.714286 0 0 2.14286 0 
0 3.57143 0 0 5 0 0 6.42857 0 
0 7.85714 0 0 9.28571 0 10 0 1.42857 
10 0 2.85714 10 0 4.28571 10 0 5.71429 
10 0 7.14286 10 0 8.57143 10 0 0.714286 
10 0 2.14286 10 0 3.57143 10 0 5 
10 0 6.42857 10 0 7.85714 10 0 9.28571 
10 1.42857 10 10 2.85714 10 10 4.28571 10 
10 5.71429 10 10 7.14286 10 10 8.57143 10 
10 0.714286 10 10 2.14286 10 10 3.57143 10 
10 5 10 10 6.42857 10 10 7.85714 10 
10 9.28571 10 10 10 1.42857 10 10 2.85714 
10 10 4.28571 10 10 5.71429 10 10 7.14286 
10 10 8.57143 10 10 0.714286 10 10 2.14286 
10 10 3.57143 10 10 5 10 10 6.42857 
10 10 7.85714 10 10 9.28571 10 1.42857 0 
10 2.85714 0 10 4.28571 0 10 5.71429 0 
10 7.14286 0 10 8.57143 0 10 0.714286 0 
10 2.14286 0 10 3.57143 0 10 5 0 
10 6.42857 0 10 7.85714 0 10 9.28571 0 
1.42857 0 0 2.85714 0 0 4.28571 0 0 
5.71429 0 0 7.14286 0 0 8.57143 0 0 
0.714286 0 0 2.14286 0 0 3.57143 0 0 
5 0 0 6.42857 0 0 7.85714 0 0 
9.28571 0 0 1.42857 0 10 2.85714 0 10 
4.28571 0 10 5.71429 0 10 7.14286 0 10 
8.57143 0 10 0.714286 0 10 2.14286 0 10 
3.57143 0 10 5 0 10 6.42857 0 10 
7.85714 0 10 9.28571 0 10 1.42857 10 0 
2.85714 10 0 4.28571 10 0 5.71429 10 0 
7.14286 10 0 8.57143 10 0 0.714286 10 0 
2.14286 10 0 3.57143 10 0 5 10 0 
6.42857 10 0 7.85714 10 0 9.28571 10 0 
1.42857 10 10 2.85714 10 10 4.28571 10 10 
5.71429 10 10 7.14286 10 10 8.57143 10 10 
0.714286 10 10 2.14286 10 10 3.57143 10 10 
5 10 10 6.42857 10 10 7.85714 10 10 
9.28571 10 10 30 0 1.42857 30 0 2.85714 
30 0 4.28571 30 0 5.71429 30 0 7.14286 
30 0 8.57143 30 0 0.714286 30 0 2.14286 
30 0 3.57143 30 0 5 30 0 6.42857 
30 0 7.85714 30 0 9.28571 30 1.42857 10 
30 2.85714 10 30 4.28571 10 30 5.71429 10 
30 7.14286 10 30 8.57143 10 30 0.714286 10 
30 2.14286 10 30 3.57143 10 30 5 10 
30 6.42857 10 30 7.85714 10 30 9.28571 10 
30 10 1.42857 30 10 2.85714 30 10 4.28571 
30 10 5.71429 30 10 7.14286 30 10 8.57143 
30 10 0.714286 30 10 2.14286 30 10 3.57143 
30 10 5 30 10 6.42857 30 10 7.85714 
30 10 9.28571 30 1.42857 0 30 2.85714 0 
30 4.28571 0 30 5.71429 0 30 7.14286 0 
30 8.57143 0 30 0.714286 0 30 2.14286 0 
30 3.57143 0 30 5 0 30 6.42857 0 
30 7.85714 0 30 9.28571 0 11.4286 0 0 
12.8571 0 0 14.2857 0 0 15.7143 0 0 
17.1429 0 0 18.5714 0 0 20 0 0 
21.4286 0 0 22.8571 0 0 24.2857 0 0 
25.7143 0 0 27.1429 0 0 28.5714 0 0 
10.7143 0 0 12.1429 0 0 13.5714 0 0 
15 0 0 16.4286 0 0 17.8571 0 0 
19.2857 0 0 20.7143 0 0 22.1429 0 0 
23.5714 0 0 25 0 0 26.4286 0 0 
27.8571 0 0 29.2857 0 0 11.4286 0 10 
12.8571 0 10 14.2857 0 10 15.7143 0 10 
17.1429 0 10 18.5714 0 10 20 0 10 
21.4286 0 10 22.8571 0 10 24.2857 0 10 
25.7143 0 10 27.1429 0 10 28.5714 0 10 
10.7143 0 10 12.1429 0 10 13.5714 0 10 
15 0 10 16.4286 0 10 17.8571 0 10 
19.2857 0 10 20.7143 0 10 22.1429 0 10 
23.5714 0 10 25 0 10 26.4286 0 10 
27.8571 0 10 29.2857 0 10 11.4286 10 0 
12.8571 10 0 14.2857 10 0 15.7143 10 0 
17.1429 10 0 18.5714 10 0 20 10 0 
21.4286 10 0 22.8571 10 0 24.2857 10 0 
25.7143 10 0 27.1429 10 0 28.5714 10 0 
10.7143 10 0 12.1429 10 0 13.5714 10 0 
15 10 0 16.4286 10 0 17.8571 10 0 
19.2857 10 0 20.7143 10 0 22.1429 10 0 
23.5714 10 0 25 10 0 26.4286 10 0 
27.8571 10 0 29.2857 10 0 11.4286 10 10 
12.8571 10 10 14.2857 10 10 15.7143 10 10 
17.1429 10 10 18.5714 10 10 20 10 10 
21.4286 10 10 22.8571 10 10 24.2857 10 10 
25.7143 10 10 27.1429 10 10 28.5714 10 10 
10.7143 10 10 12.1429 10 10 13.5714 10 10 
15 10 10 16.4286 10 10 17.8571 10 10 
19.2857 10 10 20.7143 10 10 22.1429 10 10 
23.5714 10 10 25 10 10 26.4286 10 10 
27.8571 10 10 29.2857 10 10 10 0 11.4286 
10 0 12.8571 10 0 14.2857 10 0 15.7143 
10 0 17.1429 10 0 18.5714 10 0 10.7143 
10 0 12.1429 10 0 13.5714 10 0 15 
10 0 16.4286 10 0 17.8571 10 0 19.2857 
10 1.42857 20 10 2.85714 20 10 4.28571 20 
10 5.71429 20 10 7.14286 20 10 8.57143 20 
10 0.714286 20 10 2.14286 20 10 3.57143 20 
10 5 20 10 6.42857 20 10 7.85714 20 
10 9.28571 20 10 10 11.4286 10 10 12.8571 
10 10 14.2857 10 10 15.7143 10 10 17.1429 
10 10 18.5714 10 10 10.7143 10 10 12.1429 
10 10 13.5714 10 10 15 10 10 16.4286 
10 10 17.8571 10 10 19.2857 30 0 11.4286 
30 0 12.8571 30 0 14.2857 30 0 15.7143 
30 0 17.1429 30 0 18.5714 30 0 10.7143 
30 0 12.1429 30 0 13.5714 30 0 15 
30 0 16.4286 30 0 17.8571 30 0 19.2857 
30 1.42857 20 30 2.85714 20 30 4.28571 20 
30 5.71429 20 30 7.14286 20 30 8.57143 20 
30 0.714286 20 30 2.14286 20 30 3.57143 20 
30 5 20 30 6.42857 20 30 7.85714 20 
30 9.28571 20 30 10 11.4286 30 10 12.8571 
30 10 14.2857 30 10 15.7143 30 10 17.1429 
30 10 18.5714 30 10 10.7143 30 10 12.1429 
30 10 13.5714 30 10 15 30 10 16.4286 
30 10 17.8571 30 10 19.2857 11.4286 0 20 
12.8571 0 20 14.2857 0 20 15.7143 0 20 
17.1429 0 20 18.5714 0 20 20 0 20 
21.4286 0 20 22.8571 0 20 24.2857 0 20 
25.7143 0 20 27.1429 0 20 28.5714 0 20 
10.7143 0 20 12.1429 0 20 13.5714 0 20 
15 0 20 16.4286 0 20 17.8571 0 20 
19.2857 0 20 20.7143 0 20 22.1429 0 20 
23.5714 0 20 25 0 20 26.4286 0 20 
27.8571 0 20 29.2857 0 20 11.4286 10 20 
12.8571 10 20 14.2857 10 20 15.7143 10 20 
17.1429 10 20 18.5714 10 20 20 10 20 
21.4286 10 20 22.8571 10 20 24.2857 10 20 
25.7143 10 20 27.1429 10 20 28.5714 10 20 
10.7143 10 20 12.1429 10 20 13.5714 10 20 
15 10 20 16.4286 10 20 17.8571 10 20 
19.2857 10 20 20.7143 10 20 22.1429 10 20 
23.5714 10 20 25 10 20 26.4286 10 20 
27.8571 10 20 29.2857 10 20 0 4.99412 4.99079 
0 2.78473 2.67202 0 2.67859 7.21108 0 7.32141 2.78892 
0 7.21108 7.32141 0 5 2.10976 0 2.10976 5 
0 5 7.89024 0 7.89024 5 0 1.82924 1.80106 
0 1.80271 8.16971 0 8.19729 1.83029 0 8.16971 8.19729 
0 1.44406 3.67335 0 3.66044 1.38239 0 8.61713 3.66074 
0 3.6792 8.55221 0 6.3208 1.44779 0 1.38287 6.33926 
0 6.33926 8.61713 0 8.55221 6.3208 0 4.37369 3.55488 
0 3.55488 5.62631 0 6.44512 4.37369 0 5.62631 6.44512 
0 3.21021 4.25289 0 5.71471 3.23755 0 4.29285 6.75342 
0 6.74824 5.70038 0 4.99902 0.948026 0 0.947856 5.00066 
0 9.05195 4.99904 0 5.00096 9.05195 0 3.95471 2.42976 
0 2.43152 6.04416 0 7.56848 3.95584 0 6.04416 7.56848 
0 8.96789 2.54705 0 1.03211 2.54705 0 2.54705 1.03211 
0 2.54705 8.96789 0 1.03211 7.45295 0 7.45295 1.03211 
0 8.96789 7.45295 0 7.45295 8.96789 0 1.08623 1.08288 
0 8.91693 1.08636 0 1.08307 8.91364 0 8.91364 8.91693 
0 0.541537 9.45682 0 0.541537 8.74254 0 1.25582 9.45682 
0 0.543116 1.25572 0 0.543116 0.541439 0 1.2574 0.541439 
0 9.45682 9.45846 0 8.74254 9.45846 0 9.45682 8.74418 
0 8.74418 0.543179 0 9.45846 0.543179 0 9.45846 1.25746 
0 0.516055 2.70209 0 0.516055 1.98781 0 1.05917 1.81496 
0 0.722031 3.97953 0 0.722031 3.26525 0 1.23809 3.1102 
0 0.473928 5.35747 0 0.473928 4.64319 0 1.19596 4.33701 
0 0.691434 6.74106 0 0.691434 6.02677 0 1.16536 5.66996 
0 0.516055 8.01219 0 0.516055 7.29791 0 1.20749 6.89611 
0 1.05759 8.1833 0 1.98781 0.516055 0 2.70209 0.516055 
0 1.81664 1.05749 0 3.25879 0.691194 0 3.97308 0.691194 
0 3.10374 1.20725 0 4.64237 0.474013 0 5.35665 0.474013 
0 4.32973 1.16521 0 6.01754 0.723897 0 6.73183 0.723897 
0 5.65991 1.19791 0 7.29791 0.516055 0 8.01219 0.516055 
0 6.88688 1.23995 0 8.18494 1.05923 0 2.70209 9.48394 
0 1.98781 9.48394 0 1.81506 8.94077 0 3.98246 9.2761 
0 3.26817 9.2761 0 3.11312 8.76005 0 5.35762 9.52597 
0 4.64334 9.52597 0 4.34008 8.80208 0 6.74106 9.30857 
0 6.02677 9.30857 0 5.67011 8.83454 0 8.01219 9.48394 
0 7.29791 9.48394 0 6.89611 8.79251 0 8.1833 8.94241 
0 9.48394 1.98781 0 9.48394 2.70209 0 8.94241 1.8167 
0 9.30857 3.25894 0 9.30857 3.97323 0 8.79251 3.10389 
0 9.52597 4.64238 0 9.52597 5.35666 0 8.83454 4.32989 
0 9.2761 6.01754 0 9.2761 6.73183 0 8.80208 5.65992 
0 9.48394 7.29791 0 9.48394 8.01219 0 8.76005 6.88688 
0 8.94077 8.18494 0 4.68391 4.27284 0 3.79195 3.90388 
0 4.10217 4.62184 0 5.35442 4.11417 0 5.0442 3.39621 
0 4.2745 5.30855 0 3.38254 4.9396 0 3.92387 6.18987 
0 4.64349 5.87211 0 5.71962 4.68224 0 6.07992 3.80562 
0 5.87118 5.34558 0 6.59668 5.03703 0 5.31021 5.71796 
0 4.95958 6.59927 0 6.18727 6.07275 0 2.30698 2.23654 
0 1.43068 2.17405 0 1.90842 2.60953 0 2.66589 1.85206 
0 2.18814 1.41659 0 2.11439 3.17269 0 2.32713 3.96312 
0 2.99747 3.46245 0 3.22258 2.0272 0 3.36972 2.55089 
0 3.80758 1.90607 0 3.57921 3.11345 0 4.1642 2.99232 
0 2.24065 7.69039 0 2.17488 8.5688 0 2.61282 8.08948 
0 1.85535 7.33202 0 1.41741 7.81133 0 3.1789 7.88164 
0 3.98603 7.65281 0 3.48572 6.98225 0 2.03073 6.77517 
0 2.55506 6.62762 0 1.9072 6.19171 0 3.11674 6.41869 
0 2.9932 5.83523 0 7.75935 2.30961 0 8.14465 2.66798 
0 8.58259 2.18867 0 7.82512 1.4312 0 7.38718 1.91052 
0 7.96927 3.22483 0 7.44494 3.37238 0 8.0928 3.80829 
0 6.8211 2.11836 0 6.01775 2.34267 0 6.51806 3.01324 
0 6.88326 3.58131 0 7.0068 4.16477 0 7.69039 7.75935 
0 8.5688 7.82512 0 8.08948 7.38718 0 7.33202 8.14465 
0 7.81133 8.58259 0 6.77517 7.96927 0 6.62762 7.44494 
0 6.19171 8.0928 0 7.88164 6.8211 0 7.65022 6.01059 
0 6.97966 6.51089 0 6.41869 6.88326 0 5.83523 7.0068 
0 4.33022 1.74607 0 4.99951 1.52889 0 4.47736 2.26976 
0 5.6604 1.77878 0 5.35736 2.67365 0 4.68685 2.83232 
0 1.77691 4.33668 0 2.65998 4.62645 0 1.52881 5.00033 
0 1.74631 5.66963 0 2.27064 5.52208 0 2.83232 5.31315 
0 4.3396 8.22122 0 4.64643 7.32183 0 5.00048 8.4711 
0 5.66963 8.25369 0 5.52208 7.72936 0 5.31315 7.16768 
0 8.25369 4.33037 0 8.4711 4.99952 0 7.72936 4.47792 
[...]
POINT_DATA 13895
FIELD FieldData 8
Displacement 3 13895 double
0 0 0 0 0 0 0 0 0 
0 0 0 0.00018912271339 0 3.8116449235e-06 0 0 0 
0.00018912271339 0 -7.6006883225e-06 0 0 0 0 0 0 
0 0 0 0 0 0 0 0 0 
0.00018912271339 0 0.00019296854498 0.00018912271339 0 0.0001928952401 0 0 0 
0 0 0 0 0 0 0 0 0 
0 0 0 0 0 0 0 0 0 
0 0 0 0 0 0 0 0 0 
0 0 0 0 0 0 0 0 0 
0 0 0 0 0 0 0 0 0 
0 0 0 0 0 0 0 0 0 
0 0 0 0 0 0 0 0 0 
0 0 0 0 0 0 0 0 0 
0 0 0 0 0 0 0 0 0 
0 0 0 0 0 0 0 0 0 
0 0 0 0 0 0 0 0 0 
0 0 0 0 0 0 0 0 0 
0 0 0 0 0 0 0 0 0 
0 0 0 0 0 0 0 0 0 
0 0 0 0 0 0 0 0 0 
0 0 0 0 0 0 0 0 0 
0 0 0 0 0 0 0 0 0 
0 0 0 0 0 0 5.6165213528e-09 0 -2.1946602399e-08 
-5.8709279053e-09 0 -6.0086268598e-08 -4.5787151588e-08 0 -1.0183814175e-07 -1.6055011011e-07 0 -1.1710087072e-07 
-9.3007129841e-08 0 -1.2429460085e-07 9.4034765124e-06 0 3.5354622285e-06 4.6617543488e-09 0 -8.6867684776e-09 
2.2736903706e-09 0 -3.9747575322e-08 -1.9253425927e-08 0 -8.1598828633e-08 -8.4931445582e-08 0 -1.1484251081e-07 
-1.4230923383e-07 0 -8.4924184634e-08 -1.3985600843e-06 0 1.4773749164e-06 4.6933674254e-05 0 6.0256178909e-07 
0.00018912271339 1.0850206276e-05 2.9943402168e-05 0.00018912271339 -2.4826874899e-06 3.6287961562e-05 0.00018912271339 2.5810357145e-05 1.1444026688e-05 
0.00018912271339 4.8486968871e-05 7.7876357817e-06 0.00018912271339 7.8758286409e-07 1.3452357644e-05 0.00018912271339 -6.066375489e-06 2.0005413329e-05 
0.00018912271339 3.9771584898e-06 3.205929297e-05 0.00018912271339 -8.603670623e-06 2.7223555766e-05 0.00018912271339 1.3706077191e-05 4.3829329633e-05 
0.00018912271339 4.6598696224e-05 2.4289272321e-05 0.00018912271339 1.7193252537e-05 1.4571307889e-05 0.00018912271339 -2.7093743638e-06 1.303219653e-05 
0.00018912271339 -1.431907522e-05 1.4683565312e-05 1.2250187693e-08 0 -6.2554005533e-09 1.6345150971e-08 0 -1.529420771e-08 
1.0359785498e-08 0 -3.0951144835e-08 -2.5446652254e-08 0 -6.7452522657e-08 -3.1928065581e-07 0 -1.808385106e-07 
1.1528053485e-06 0 2.4665712097e-07 7.261119993e-09 0 -2.7216311092e-09 1.5256200904e-08 0 -1.0366206818e-08 
1.5596452107e-08 0 -2.228115738e-08 1.7942341043e-09 0 -4.2537494615e-08 -8.7740264664e-08 0 -1.1277475097e-07 
3.2792220642e-08 0 1.2475453046e-07 3.2962971351e-05 0 5.0129744888e-07 0 0 0 
0 0 0 0 0 0 0 0 0 
0 0 0 0 0 0 0 0 0 
0 0 0 0 0 0 0 0 0 
0 0 0 0 0 0 0 0 0 
0 0 0 0 0 0 0 0 0 
0 0 0 0 0 0 0 0 0 
0 0 0 0 0 0 0 0 0 
0 0 0 0 0 0 0 0 0 
0 0 0 4.0252711642e-08 0 -5.5170244884e-09 1.1496841927e-07 0 1.0393166602e-08 
2.4184331126e-07 0 1.1749555833e-08 5.0367609193e-07 0 -6.9079040921e-08 1.4021198601e-06 0 -1.1814108954e-06 
6.4414660391e-05 0 -5.4187753576e-05 1.5445283362e-08 0 -1.1751347687e-08 7.3443566969e-08 0 3.0292967447e-09 
1.7359779938e-07 0 1.6168038333e-08 3.4671148033e-07 0 -6.0355732878e-09 7.2728772745e-07 0 -1.6901586973e-07 
1.3872945729e-05 0 -5.2900891799e-06 0.00013669307742 0 -0.00013023396321 0 0 0 
0 0 0 0 0 0 0 0 0 
0 0 0 0 0 0 0 0 0 
0 0 0 0 0 0 0 0 0 
0 0 0 0 0 0 0 0 0 
-3.8212068338e-10 0 1.067201176e-08 4.0493019396e-09 0 2.7420436597e-08 6.6535270557e-09 0 4.1466767699e-08 
-1.2552182239e-08 0 5.1210250202e-08 -3.1055648133e-07 0 -1.4890207469e-08 6.2387039795e-05 0 -4.7118198536e-05 
-7.6266695958e-10 0 3.5580310623e-09 1.6583044322e-09 0 1.930482884e-08 5.8219020911e-09 0 3.4800347695e-08 
-1.1749819128e-09 0 5.2421633133e-08 -1.1815389332e-07 0 7.6842789293e-08 1.2212438744e-05 0 2.4299226808e-07 
0.00013059883603 0 -0.00013172663476 0 0 0 0 0 0 
0 0 0 0 0 0 0 0 0 
0 0 0 0 0 0 0 0 0 
0 0 0 0 0 0 0 0 0 
0 0 0 0 0 0 0 0 0 
0 0 0 0 0 0 0 0 0 
0 0 0 0 0 0 0 0 0 
0 0 0 0 0 0 0 0 0 
0 0 0 0 0 0 0 0 0 
0 0 0 0 0 0 0 0 0 
0 0 0 0 0 0 0 0 0 
0 0 0 0 0 0 0 0 0 
0 0 0 0 0 0 0 0 0 
0 0 0 0 0 0 0 0 0 
0 0 0 0 0 0 0 0 0 
0 0 0 0 0 0 0 0 0 
0 0 0 0 0 0 0 0 0 
0 0 0 0 0 0 0 0 0 
0 0 0 0 0 0 0 0 0 
0 0 0 0 0 0 0 0 0 
0 0 0 0 0 0 0 0 0 
0 0 0 0 0 0 0 0 0 
0 0 0 0 0 0 0 0 0 
0 0 0 0 0 0 0 0 0 
0 0 0 0 0 0 0 0 0 
0 0 0 0 0 0 0 0 0 
0 0 0 0 0 0 8.1132709797e-05 0 3.8912679311e-05 
2.3934851372e-05 0 1.2494922646e-05 4.906784116e-06 0 1.55597771e-06 2.4902440708e-07 0 4.4192573576e-07 
2.3005480791e-07 0 3.6249311552e-07 1.3118593429e-07 0 2.7924352534e-07 9.9136202129e-08 0 2.0022599968e-07 
7.6790368258e-08 0 1.2852101186e-07 6.1358847558e-08 0 7.97560731e-08 4.4207328228e-08 0 4.1928946311e-08 
2.9382162073e-08 0 1.6056674575e-08 1.6449705896e-08 0 -9.9447558941e-10 6.7334983564e-09 0 -8.6849310105e-09 
0.00013720556888 0 4.2898237348e-05 4.3997764576e-05 0 2.8617332858e-05 1.1400620158e-05 0 4.5331607025e-06 
1.3585994022e-06 0 6.6726634858e-07 1.5522505713e-07 0 2.5681516648e-07 1.6249798074e-07 0 3.216578609e-07 
1.1310682376e-07 0 2.3845693977e-07 8.5558099973e-08 0 1.6161243156e-07 7.0422399449e-08 0 1.0264313648e-07 
5.2509217759e-08 0 5.8775132504e-08 3.69420599e-08 0 2.8114543732e-08 2.275328229e-08 0 6.6105145636e-09 
1.0868328091e-08 0 -6.0022799527e-09 2.8885704595e-09 0 -6.7762440227e-09 0 0 0 
0 0 0 0 0 0 0 0 0 
0 0 0 0 0 0 0 0 0 
0 0 0 0 0 0 0 0 0 
0 0 0 0 0 0 0 0 0 
0 0 0 0 0 0 0 0 0 
0 0 0 0 0 0 0 0 0 
0 0 0 0 0 0 0 0 0 
0 0 0 0 0 0 0 0 0 
0 0 0 0 0 0 5.7055714941e-05 0 2.2351893822e-05 
5.0515547799e-06 0 2.8842754403e-06 1.8300415238e-06 0 3.7799863915e-07 1.5459334291e-07 0 1.8088064903e-07 
2.040453277e-07 0 2.144618507e-07 1.2081129008e-07 0 1.9732591594e-07 9.1316879507e-08 0 1.5961093155e-07 
6.9500816228e-08 0 1.1347721828e-07 6.0816862564e-08 0 6.4722405628e-08 4.5077039008e-08 0 2.9414410064e-08 
3.2324662493e-08 0 6.0426160843e-09 1.9834506157e-08 0 -8.5472827705e-09 9.546694511e-09 0 -1.2969040221e-08 
0.00011873062967 0 6.6371809064e-05 2.136300125e-05 0 1.4899427711e-05 2.4124787642e-06 0 1.7307403631e-06 
5.3922986805e-07 0 1.8092232345e-07 8.3637444935e-08 0 5.6619980105e-08 1.5658917775e-07 0 2.0399410685e-07 
1.0761843249e-07 0 1.7756488673e-07 7.8964981757e-08 0 1.3387170073e-07 6.4856992324e-08 0 8.7048426081e-08 
5.1906505253e-08 0 4.4563289746e-08 3.9014926102e-08 0 1.6857575446e-08 2.6073527193e-08 0 -2.4470020335e-09 
1.405650823e-08 0 -1.2127906665e-08 4.5092625783e-09 0 -9.3653422683e-09 0.00018912271339 0 0.00014160329782 
0.00018912271339 0 0.00018092363834 0.00018912271339 0 0.00019053089441 0.00018912271339 0 0.00019251164163 
0.00018912271339 0 0.00019302446354 0.00018912271339 0 0.00019296360674 0.00018912271339 0 8.9689456061e-05 
0.00018912271339 0 0.00015810070892 0.00018912271339 0 0.00018776991739 0.00018912271339 0 0.00019154458619 
0.00018912271339 0 0.00019302646227 0.00018912271339 0 0.00019299459253 0.00018912271339 0 0.00019295682779 
0.00018912271339 1.5401945112e-08 0.00019295636728 0.00018912271339 1.231478124e-08 0.00019293560315 0.00018912271339 1.7851539652e-08 0.00019295376811 
0.00018912271339 1.8238779878e-08 0.00019295348224 0.00018912271339 4.2919738049e-08 0.00019291854509 0.00018912271339 2.9694661243e-08 0.00019289474183 
0.00018912271339 3.7373766405e-09 0.00019296938221 0.00018912271339 2.3547806409e-08 0.00019293602066 0.00018912271339 1.5787457009e-08 0.00019295752383 
0.00018912271339 1.6554690718e-08 0.0001929444911 0.00018912271339 3.5256850022e-08 0.00019295515818 0.00018912271339 2.7431004134e-08 0.00019290886349 
0.00018912271339 1.1803581056e-08 0.000192891283 0.00018912271339 0 0.00013497723795 0.00018912271339 0 0.00017661059835 
0.00018912271339 0 0.0001888103585 0.00018912271339 0 0.0001924781665 0.00018912271339 0 0.00019291484022 
0.00018912271339 0 0.00019286234057 0.00018912271339 0 8.5296773056e-05 0.00018912271339 0 0.00015682271536 
0.00018912271339 0 0.00018473738383 0.00018912271339 0 0.00019200037407 0.00018912271339 0 0.00019287064165 
0.00018912271339 0 0.00019289026318 0.00018912271339 0 0.00019287084201 0 0 0 
0 0 0 0 0 0 0 0 0 
0 0 0 0 0 0 0 0 0 
0 0 0 0 0 0 0 0 0 
0 0 0 0 0 0 0 0 0 
0 0 0 0 0 0 0 0 0 
0 0 0 0 0 0 0 0 0 
0 0 0 0 0 0 0 0 0 
0 0 0 0 0 0 0 0 0 
0 0 0 0 0 0 0 0 0 
0 0 0 0 0 0 0 0 0 
0 0 0 0 0 0 0 0 0 
0 0 0 0 0 0 0 0 0 
0 0 0 0 0 0 0.0001890382328 0 0.00019300191622 
0.00018903071637 0 0.00019317519813 0.00018897066173 0 0.00019297653232 0.00018716504373 0 0.00019088500843 
0.00017770019977 0 0.00017835860516 0.00015026855837 0 0.00015010030429 0.00010149167666 0 0.00010207099659 
5.4457150037e-05 0 5.4659534812e-05 2.1809605651e-05 0 2.1792832672e-05 5.5542628568e-06 0 5.628868701e-06 
4.7642873849e-07 0 5.0694626114e-07 2.3765123747e-07 0 2.1994187362e-07 1.5408769997e-07 0 1.7483365221e-07 
0.00018908697971 0 0.00019298018698 0.00018904974325 0 0.00019310544943 0.00018908059953 0 0.00019311903634 
0.00018851355634 0 0.00019243561234 0.00018417423813 0 0.00018630527138 0.00016681067544 0 0.0001661563861 
0.00012668217382 0 0.00012654778932 7.6280240254e-05 0 7.6407993719e-05 3.6173412278e-05 0 3.6250098564e-05 
1.1961794744e-05 0 1.1919727887e-05 2.3120260202e-06 0 2.5431357661e-06 3.3610693436e-07 0 3.10919852e-07 
1.8696055262e-07 0 1.9230890307e-07 7.8110919723e-08 0 2.0037278595e-07 0.00018904698274 0 0.00019290399952 
0.00018899562935 0 0.0001929203669 0.00018911637146 0 0.00019279956608 0.0001879606992 0 0.00019174052127 
0.00017851071203 0 0.0001777568072 0.00014761007199 0 0.00014891680707 0.00010113947902 0 0.00010171867183 
5.3115726597e-05 0 5.2750037504e-05 2.1669353323e-05 0 2.0968549738e-05 5.3819293047e-06 0 5.2170209922e-06 
1.310713821e-06 0 1.2284583426e-06 1.8925435239e-07 0 8.8540102605e-08 9.5696052004e-08 0 1.4334573248e-07 
0.0001890843033 0 0.00019290799359 0.00018904465586 0 0.00019295273172 0.00018904458126 0 0.00019300969165 
0.00018849661629 0 0.00019263429951 0.00018473434764 0 0.00018708917248 0.00016657905645 0 0.00016447296537 
0.0001230925829 0 0.00012438468244 7.7186277558e-05 0 7.7087557109e-05 3.5099422422e-05 0 3.5223954792e-05 
1.1727635693e-05 0 1.1980761497e-05 2.9015666169e-06 0 2.9334190328e-06 5.2076524278e-07 0 5.9725554212e-07 
1.2778369394e-07 0 1.5202891797e-07 5.2523929332e-08 0 1.6045830187e-07 0 0 0 
0 0 0 0 0 0 0 0 0 
0 0 0 0 0 0 0 0 0 
0 0 0 0 0 0 0 0 0 
0 0 0 0 0 0 0 0 0 
0 0 0 0 0 0 0 0 0 
0 0 0 0 0 0 0 0 0 
0 0 0 0 0 0 0 0 0 
0 0 0 0 0 0 0 0 0 
0 0 0 0 0 0 0 0 0 
0 0 0 0 0 0 0 0 0 
0 0 0 0 0 0 0 0 0 
0 0 0 0 0 0 0 0 0 
0 0 0 0 0 0 0 0 0 
0 0 0 0 0 0 0 0 0 
0 0 0 0 0 0 0 0 0 
0 0 0 0 0 0 0 0 0 
0 0 0 0 0 0 0 0 0 
0 0 0 0 0 0 0 0 0 
0 0 0 0 0 0 0 0 0 
0 0 0 0 0 0 0 0 0 
0 0 0 0 0 0 0 0 0 
0 0 0 0 0 0 0 0 0 
0 0 0 0 0 0 0 0 0 
0 0 0 0 0 0 0 0 0 
0 0 0 0 0 0 0 0 0 
0 0 0 0 0 0 0 0 0 
0 0 0 0 0 0 0 0 0 
0 0 0 0 0 0 0 0 0 
0 0 0 0 0 0 0 0 0 
0 0 0 0 0 0 0 0 0 
0 0 0 0 0 0 0 0 0 
0 0 0 0 0 0 0 0 0 
0 0 0 0 0 0 0 0 0 
0 0 0 0 0 0 0 0 0 
0 0 0 0 0 0 0 0 0 
0 0 0 0 0 0 0 0 0 
0 0 0 0 0 0 0 0 0 
0 0 0 0 0 0 0 0 0 
0 0 0 0 0 0 0 0 0 
0 0 0 0 0 0 0 0 0 
0 0 0 0 0 0 0 0 0 
0 0 0 0 0 0 0 0 0 
0 0 0 0 0 0 0 0 0 
0 0 0 0 0 0 0 0 0 
0 0 0 0 0 0 0 0 0 
0 0 0 0 0 0 0 0 0 
0 0 0 0 0 0 0 0 0 
0 0 0 0 0 0 0 0 0 
0 0 0 0 0 0 0 0 0 
0 0 0 0 0 0 0 0 0 
0 0 0 0 0 0 0 0 0 
0 0 0 0 0 0 0 0 0 
0 0 0 0 0 0 0 0 0 
0 0 0 0 0 0 0 0 0 
0 0 0 0 0 0 0 0 0 
0 0 0 0 0 0 0 0 0 
0 0 0 0 0 0 0 0 0 
0 0 0 0 0 0 0 0 0 
0 0 0 0 0 0 0 0 0 
0 0 0 0 0 0 0 0 0 
0 0 0 0 0 0 0 0 0 
0 0 0 0 0 0 0 0 0 
0 0 0 0 0 0 0 0 0 
0 0 0 0 0 0 0 0 0 
0 0 0 0 0 0 0 0 0 
0 0 0 0 0 0 0 0 0 
0 0 0 0 0 0 0 0 0 
0 0 0 0 0 0 0 0 0 
0 0 0 0 0 0 0 0 0 
0 0 0 0 0 0 0 0 0 
0 0 0 0 0 0 0 0 0 
0 0 0 0 0 0 0 0 0 
0 0 0 0 0 0 0 0 0 
0 0 0 -1.7480861478e-08 6.6449436374e-08 -1.2603873553e-07 -5.9370648135e-10 1.6571551511e-08 -5.5448989988e-08 
4.1419956518e-07 -1.283966332e-07 -3.3879382696e-07 1.586763419e-08 2.8547410843e-08 -2.7092908833e-08 -4.5569543241e-08 2.9781795005e-08 -2.0031574338e-08 
1.020999908e-08 2.5824520943e-08 -3.445056612e-08 -7.8340849649e-08 2.0351912172e-08 -1.0846787662e-07 1.014376845e-08 2.9912687365e-08 -5.0173051337e-08 
-4.6363637202e-07 1.0879479273e-07 3.1059590881e-07 5.3650558927e-09 8.0360844788e-09 -3.1588919615e-08 -1.8575825575e-06 -2.0702141749e-06 1.054842299e-06 
1.415148616e-08 1.4903279179e-08 -1.1519502458e-08 -1.5728643666e-07 6.3364877463e-09 -7.4823597201e-08 -2.3667525416e-08 1.0901872302e-08 -8.3890031118e-08 
7.6405249995e-09 1.4044124286e-08 -2.114320582e-08 1.5359689444e-08 1.7651232666e-08 -2.6012874883e-08 5.1950887872e-08 4.7016911049e-07 -4.6504721547e-07 
1.1169012726e-08 1.9853425087e-08 -1.4656336792e-08 -2.1162903486e-07 3.7966058595e-08 9.3493399508e-08 -7.9097672236e-07 -1.5342198862e-07 2.7731242081e-07 
-2.3714154375e-08 -1.0077987906e-08 -7.4639134821e-08 -2.1495606583e-09 3.7035597004e-08 -8.3335102265e-08 -8.0654109776e-08 1.9228363962e-08 -1.862810575e-07 
1.0255246616e-08 5.2828627043e-08 -6.8495806787e-08 -3.1191148463e-08 9.7613940586e-08 -7.2027551466e-08 -2.8987500402e-08 2.2706032486e-08 -1.1709194706e-07 
1.0340105514e-08 3.9546733427e-08 -5.5710860711e-08 -2.2224555188e-07 1.4007975532e-07 -1.8769178666e-07 -3.7128870093e-10 5.3761591621e-08 -7.1265278491e-08 
7.5586809009e-09 1.3503785121e-08 -1.0502736014e-08 1.950836706e-09 9.9993234557e-09 -4.5305197552e-08 -8.2274545074e-08 1.707502725e-08 -1.1628567576e-07 
3.324481173e-06 -3.9104569433e-06 2.4636441211e-06 6.2762080782e-09 2.3393250377e-08 -4.7276447622e-08 -1.4116371567e-07 -2.2231544581e-08 -9.2363083365e-08 
1.3818907149e-08 3.3740944222e-08 -4.0817149412e-08 -1.6210451969e-07 1.3255257815e-07 -1.1149986615e-07 1.6208538223e-08 1.1265850168e-08 -1.4818896764e-08 
5.7346597517e-09 7.4063322625e-09 -1.4045411657e-08 -1.1813934255e-09 6.0967820128e-09 -5.058628566e-08 1.6908588272e-05 -1.9244954899e-06 -6.0209738676e-06 
9.4929790047e-09 1.2704848301e-08 -6.3155108699e-09 -5.3956805878e-07 5.9296613031e-08 4.567336721e-07 -7.5538729321e-08 -5.0885812259e-08 -1.2002744731e-07 
2.6023865265e-07 1.5290995263e-07 -7.4059684739e-08 5.6893799068e-09 3.001934356e-09 -1.4976321386e-08 1.0014415122e-08 6.3144582698e-09 -4.6636504064e-09 
1.5314178598e-05 4.6106434796e-08 -2.1502516005e-06 -5.5285084665e-08 9.5465083014e-08 1.976441842e-07 6.7144909284e-05 -3.7633955544e-06 -7.5909447932e-06 
6.6838290864e-05 2.5784696212e-06 -2.5807249827e-06 1.2158923093e-05 3.0420242605e-07 -2.9412708214e-06 3.9512472068e-09 1.9533504734e-09 -5.721243559e-09 
3.8648877174e-09 7.9364962483e-10 -5.9128429024e-09 5.8284644086e-09 1.668719771e-09 -1.8430285557e-08 5.0050397565e-05 -9.0152924311e-07 -2.7207547021e-06 
2.2384385548e-07 -3.9625395855e-07 -1.1552744365e-06 5.1417718675e-05 -2.3844822508e-06 7.9220566336e-07 5.6882312459e-09 1.7548722345e-09 -2.0142666167e-09 
5.4838951124e-09 4.0789114853e-09 -2.0725743567e-09 1.1194873873e-08 3.5776516153e-09 -5.426774655e-09 3.7910695632e-09 4.2639221281e-09 -5.4355021416e-09 
3.7615104542e-09 2.9989971356e-09 -5.4169564981e-09 5.6911828064e-09 5.2785630014e-09 -1.4377136649e-08 5.3895601052e-09 8.4786777899e-09 -7.6228453413e-09 
4.9879142727e-09 6.8611302526e-09 -7.8516697534e-09 6.598820099e-09 1.0474508016e-08 -1.7592212536e-08 4.4492306481e-09 7.4604580728e-09 -3.9343508359e-09 
4.1984854775e-09 6.8947101162e-09 -4.2927036607e-09 7.810322232e-09 1.4396348967e-08 -1.5569109317e-08 6.9218199998e-09 1.0901600207e-08 -5.0152513141e-09 
6.6499498279e-09 1.1388690439e-08 -5.8932873531e-09 9.413146354e-09 1.7234404792e-08 -1.3117915019e-08 5.2633725724e-09 5.6967844295e-09 -2.4366378511e-09 
5.2529224374e-09 7.2756051503e-09 -2.6479412516e-09 1.0554355707e-08 1.6498778315e-08 -9.9634357467e-09 9.565330671e-09 9.8526263719e-09 -5.6004881253e-09 
1.6316479918e-08 5.7658303525e-09 -1.4597540172e-08 1.4680364613e-08 4.7158974195e-09 -9.7989717539e-09 1.409976709e-08 8.9372666372e-09 -9.4265678218e-09 
1.2970515299e-08 9.7295833215e-09 -2.8444804355e-08 1.6244417618e-08 8.3307721136e-09 -1.9472022646e-08 1.6385911419e-08 1.4513263741e-08 -1.997499442e-08 
-8.8489381569e-09 -4.109055602e-10 -4.9640199883e-08 8.3235632732e-09 6.3267960147e-09 -3.6536129963e-08 1.1563278369e-08 1.5918612029e-08 -3.3340508049e-08 
-6.8771767557e-08 -1.2502932065e-08 -1.0751902771e-07 -3.0122284548e-08 -8.3977280133e-09 -7.4017091332e-08 -1.2979241113e-08 5.9003175534e-09 -5.9420729957e-08 
-1.4086892248e-07 1.3295758692e-07 1.0666617356e-07 -1.8688063911e-07 -8.8750320397e-08 -1.7318058898e-07 -3.5519519983e-08 -2.5546008689e-08 -9.7576250854e-08 
-3.4647634131e-07 3.7913450905e-08 -1.134251123e-07 7.3470921909e-05 4.8438945912e-06 -1.3617557102e-05 7.4131278085e-05 -2.4362519723e-06 -3.5106416791e-06 
1.9030047033e-05 1.5228727877e-06 -1.0652794416e-05 5.0952387294e-05 1.1979801086e-06 6.6402587561e-06 5.6332571261e-05 7.1636691465e-06 -2.6237215772e-06 
4.4383084353e-06 1.0803527149e-06 -1.1839988342e-06 5.7723097186e-05 5.7716673707e-06 4.9066973486e-06 7.4447684975e-05 3.7783465423e-06 -1.5042362351e-05 
-1.3670511036e-06 -1.6125632131e-06 -3.1587331797e-07 5.5717357216e-05 1.2145940222e-05 -8.2908271165e-06 4.6879968268e-05 2.3850130035e-06 3.6279387506e-06 
2.3792291831e-06 -9.2440864213e-07 6.2332962507e-07 4.9331794482e-05 1.5689677744e-06 2.8625710184e-06 4.52958668e-05 -5.320740756e-07 7.2456843893e-06 
-1.6653133139e-07 1.8851587789e-08 -1.3487957481e-07 -1.9943932722e-07 -4.5189977613e-08 1.1912746693e-07 3.561588327e-09 2.6142820172e-09 -3.5364187703e-08 
-3.3196295761e-09 3.0063499869e-09 -5.5584002436e-08 4.6264364914e-09 4.6386431237e-09 -3.1104497259e-08 -1.2715817742e-08 4.7439323267e-09 -7.2431183264e-08 
-3.2618667663e-08 4.9502023885e-09 -9.4723448882e-08 -9.453576763e-09 8.4614358386e-09 -6.6539261258e-08 -5.9501979049e-08 5.6728894148e-09 -1.0966308091e-07 
-1.1798835059e-07 1.0898056921e-08 -1.2867698984e-07 -4.5100333614e-08 1.0477466395e-08 -1.0100707932e-07 -1.7647002892e-07 1.4643778456e-08 -8.5382130929e-08 
-3.1827465032e-07 8.534524022e-08 -1.8728751112e-08 -1.3807463399e-07 1.4271156748e-08 -4.759686008e-08 -2.0722587659e-07 3.4528161336e-08 -1.9087499292e-07 
-3.6594477936e-07 -5.1717790043e-07 -4.7513059696e-07 -3.0616268177e-07 -2.6739079302e-08 2.6683720754e-07 1.1516492548e-06 -3.9778173083e-07 -5.4211103253e-07 
-2.9985377558e-08 4.4411177052e-08 -1.3230634807e-07 -1.3057691929e-08 3.1931931066e-08 -1.0218649629e-07 -1.0939975263e-08 5.0895937996e-08 -1.0625043432e-07 
5.7264495061e-09 4.0381009064e-08 -6.9515644048e-08 1.6673935541e-09 5.2802020967e-08 -8.589409969e-08 -5.151003065e-08 2.4643890623e-08 -1.5249689839e-07 
-5.0355270736e-08 4.4942044009e-08 -1.6261840497e-07 -6.9503719653e-08 8.0719883944e-08 -1.6262035594e-07 -7.7412746803e-08 8.422824605e-08 -2.032013926e-07 
9.6545112376e-09 4.6574966236e-08 -6.3706743378e-08 2.2673259164e-09 6.3240732838e-08 -9.3195620485e-08 5.7481949986e-09 5.7172496991e-08 -7.4176888774e-08 
-2.859400708e-09 7.0547760905e-08 -9.9276179036e-08 -1.2586840789e-07 1.3734136079e-07 -1.9208668297e-07 -3.280150878e-08 8.1561226654e-08 -1.1855470426e-07 
-7.490861953e-09 6.5919102405e-08 -7.7500723647e-08 6.0478375e-09 8.2158688824e-09 -2.2079823771e-08 5.7878927242e-09 1.2337460881e-08 -3.2622301231e-08 
3.2529132679e-09 1.1927416152e-08 -4.2743190774e-08 -2.914077546e-10 1.0612494773e-08 -5.3237518008e-08 2.714619638e-09 7.2643529491e-09 -4.0846592629e-08 
-1.0537360353e-08 2.08563977e-08 -8.4221803528e-08 -2.83046093e-08 1.5448842934e-08 -9.6128787825e-08 -9.993472253e-09 1.3249806333e-08 -7.0613985416e-08 
7.6584873564e-09 1.8727161517e-08 -3.3270637897e-08 2.8137348014e-09 2.0042123677e-08 -5.2726115677e-08 5.7983905667e-09 1.6193544066e-08 -3.7328200492e-08 
-2.3689195025e-09 2.5143890571e-08 -7.1382786859e-08 2.6759821153e-09 2.9550668217e-08 -6.4494711111e-08 -1.4060476712e-06 -2.7069501582e-07 -2.1997414195e-06 
7.0792850336e-06 -2.6662632428e-06 -2.356657011e-06 -8.1634409921e-07 -7.7218689575e-07 2.003742085e-07 -1.9583943371e-06 -7.5218710582e-07 7.4074532141e-07 
-4.5748735454e-07 -1.5589892827e-07 3.4079049229e-07 -1.5717946133e-07 1.4157699416e-07 -3.5486380234e-07 -1.4591441608e-07 2.6510985469e-07 -2.3148962483e-07 
-4.4098795276e-07 4.5671867283e-07 -7.1508889155e-07 -1.7806635857e-07 -1.1431192541e-08 2.4616809669e-09 -5.4140892954e-08 -6.9519490706e-08 -1.9373650445e-07 