# vtk DataFile Version 4.1
vtk output
ASCII
DATASET UNSTRUCTURED_GRID
POINTS 949 float
-50.4035 -3.55271e-15 -3.85 -50.4035 -3.55271e-15 3.85 -38.605 -4.93315 -3.85 
-38.605 -4.93315 3.85 -31.9679 4.59652 -3.85 -31.9679 4.59652 3.85 
-21 0.45642 -3.85 -21 0.45642 -2.65 -21 0.45642 2.65 
-21 0.45642 3.85 -12.4448 15.4062 -3.85 -18 31.0321 -3.85 
-38.8249 32.9799 -3.85 -55 18.4356 -3.85 -36.5644 23.0321 -3.85 
-12.4448 15.4062 3.85 -18 31.0321 3.85 -38.8249 32.9799 3.85 
-55 18.4356 3.85 -36.5644 23.0321 3.85 -12.4448 15.4062 -2.65 
-1.86303e-15 9.03214 -2.65 -1.86303e-15 9.03214 2.65 -12.4448 15.4062 2.65 
-18 31.0321 -2.65 -18 31.0321 2.65 -5.41091e-15 25.0321 -2.65 
140 25.0321 -2.65 175 25.0321 -2.65 175 9.03214 -2.65 
140 9.03214 -2.65 140 9.03214 2.65 -5.41091e-15 25.0321 2.65 
140 25.0321 2.65 175 25.0321 2.65 175 9.03214 2.65 
-50.4035 -3.55271e-15 0 -38.605 -4.93315 0 -44.2479 -3.31518 -3.85 
-47.4226 -1.83752 -3.85 -41.4661 -4.26252 -3.85 -44.2479 -3.31518 3.85 
-47.4226 -1.83752 3.85 -41.4661 -4.26252 3.85 -31.9679 4.59652 3.10862e-15 
-31.9679 4.59652 -1.925 -31.9679 4.59652 1.925 -42.5535 1.95721 -3.85 
-46.4785 0.978607 -3.85 -37.2607 3.27687 -3.85 -42.5535 1.95721 3.85 
-46.4785 0.978607 3.85 -37.2607 3.27687 3.85 -21 0.45642 -3.25 
-21 0.45642 0 -21 0.45642 3.25 -29.1454 -4.38463 -3.85 
-33.8422 -5.22719 -3.85 -24.7819 -2.45346 -3.85 -29.1454 -4.38463 3.85 
-33.8422 -5.22719 3.85 -24.7819 -2.45346 3.85 -15.2356 8.15215 -3.85 
-17.8238 4.08407 -3.85 -13.6167 11.6932 -3.85 -12.1603 21.2193 -3.85 
-14.1099 26.7032 -3.85 -12.0179 18.2989 -3.85 -12.8666 24.0567 -3.85 
-15.843 29.0581 -3.85 -23.8189 34.053 -3.85 -31.4169 34.9819 -3.85 
-20.7848 32.7826 -3.85 -27.5731 34.8843 -3.85 -35.2178 34.3395 -3.85 
-46.7998 27.7988 -3.85 -42.9669 30.6272 -3.85 -51.2663 23.4381 -3.85 
-47.15 20.3928 -3.85 -51.075 19.4142 -3.85 -41.8572 21.7125 -3.85 
-28.5567 8.19815 -3.85 -27.2961 12.9959 -3.85 -28.4962 17.8092 -3.85 
-31.8616 21.4535 -3.85 -30.0354 6.18246 -3.85 -27.6242 10.5176 -3.85 
-27.5929 15.4781 -3.85 -29.9493 19.8433 -3.85 -34.1136 22.5391 -3.85 
-15.2356 8.15215 3.85 -17.8238 4.08407 3.85 -13.6167 11.6932 3.85 
-12.1603 21.2193 3.85 -14.1099 26.7032 3.85 -12.0179 18.2989 3.85 
-12.8666 24.0567 3.85 -15.843 29.0581 3.85 -23.8189 34.053 3.85 
-31.4169 34.9819 3.85 -20.7848 32.7826 3.85 -27.5731 34.8843 3.85 
-35.2178 34.3395 3.85 -46.7998 27.7988 3.85 -42.9669 30.6272 3.85 
-51.2663 23.4381 3.85 -47.15 20.3928 3.85 -51.075 19.4142 3.85 
-41.8572 21.7125 3.85 -28.5567 8.19815 3.85 -27.2961 12.9959 3.85 
-28.4962 17.8092 3.85 -31.8616 21.4535 3.85 -30.0354 6.18246 3.85 
-27.6242 10.5176 3.85 -27.5929 15.4781 3.85 -29.9493 19.8433 3.85 
-34.1136 22.5391 3.85 -36.5644 23.0321 3.10862e-15 -36.5644 23.0321 -1.925 
-36.5644 23.0321 1.925 -12.4448 15.4062 -3.25 -15.2356 8.15215 -2.65 
-17.8238 4.08407 -2.65 -13.6167 11.6932 -2.65 -1.86303e-15 9.03214 0 
-12.5871 6.26381 -2.65 -6.44398 8.33188 -2.65 -17.0428 3.72109 -2.65 
-12.5871 6.26381 2.65 -6.44398 8.33188 2.65 -17.0428 3.72109 2.65 
-15.2356 8.15215 2.65 -17.8238 4.08407 2.65 -13.6167 11.6932 2.65 
-12.4448 15.4062 3.25 -18 31.0321 -3.25 -12.1603 21.2193 -2.65 
-14.1099 26.7032 -2.65 -12.0179 18.2989 -2.65 -12.8666 24.0567 -2.65 
-15.843 29.0581 -2.65 -18 31.0321 0 -18 31.0321 3.25 
-38.8249 32.9799 0 -55 18.4356 0 -12.1603 21.2193 2.65 
-14.1099 26.7032 2.65 -12.0179 18.2989 2.65 -12.8666 24.0567 2.65 
-15.843 29.0581 2.65 -10.8599 27.0668 -2.65 -14.5655 28.8053 -2.65 
-5.52443 25.5452 -2.65 16.2336 25.0321 -2.65 36.6109 25.0321 -2.65 
57.2887 25.0321 -2.65 77.9665 25.0321 -2.65 98.6444 25.0321 -2.65 
119.322 25.0321 -2.65 8.1168 25.0321 -2.65 26.4223 25.0321 -2.65 
46.9498 25.0321 -2.65 67.6276 25.0321 -2.65 88.3055 25.0321 -2.65 
108.983 25.0321 -2.65 129.661 25.0321 -2.65 157.5 25.0321 -2.65 
148.75 25.0321 -2.65 166.25 25.0321 -2.65 175 17.0321 -2.65 
157.5 9.03214 -2.65 148.75 9.03214 -2.65 166.25 9.03214 -2.65 
16.2336 9.03214 -2.65 36.6109 9.03214 -2.65 57.2887 9.03214 -2.65 
77.9665 9.03214 -2.65 98.6444 9.03214 -2.65 119.322 9.03214 -2.65 
8.1168 9.03214 -2.65 26.4223 9.03214 -2.65 46.9498 9.03214 -2.65 
67.6276 9.03214 -2.65 88.3055 9.03214 -2.65 108.983 9.03214 -2.65 
129.661 9.03214 -2.65 140 9.03214 0 16.2336 9.03214 2.65 
36.6109 9.03214 2.65 57.2887 9.03214 2.65 77.9665 9.03214 2.65 
98.6444 9.03214 2.65 119.322 9.03214 2.65 8.1168 9.03214 2.65 
26.4223 9.03214 2.65 46.9498 9.03214 2.65 67.6276 9.03214 2.65 
88.3055 9.03214 2.65 108.983 9.03214 2.65 129.661 9.03214 2.65 
-10.8599 27.0668 2.65 -14.5655 28.8053 2.65 -5.52443 25.5452 2.65 
16.2336 25.0321 2.65 36.6109 25.0321 2.65 57.2887 25.0321 2.65 
77.9665 25.0321 2.65 98.6444 25.0321 2.65 119.322 25.0321 2.65 
8.1168 25.0321 2.65 26.4223 25.0321 2.65 46.9498 25.0321 2.65 
67.6276 25.0321 2.65 88.3055 25.0321 2.65 108.983 25.0321 2.65 
129.661 25.0321 2.65 157.5 25.0321 2.65 148.75 25.0321 2.65 
166.25 25.0321 2.65 175 17.0321 2.65 157.5 9.03214 2.65 
148.75 9.03214 2.65 166.25 9.03214 2.65 -5.41091e-15 25.0321 0 
140 25.0321 0 175 25.0321 0 175 9.03214 0 
-47.4226 -1.83752 0 -48.9399 -0.962292 -1.925 -48.9399 -0.962292 1.925 
-45.8568 -2.62271 -1.925 -45.8568 -2.62271 1.925 -41.4661 -4.26252 0 
-44.2479 -3.31518 0 -37.2939 3.2686 4.44089e-16 -46.4785 0.978607 4.44089e-16 
-48.441 0.489304 1.925 -48.441 0.489304 -1.925 -44.516 1.46791 -1.925 
-44.516 1.46791 1.925 -34.6309 3.93256 -1.925 -34.6309 3.93256 1.77636e-15 
-39.9237 2.61291 -1.925 -34.6309 3.93256 1.925 -39.9237 2.61291 1.925 
-42.5535 1.95721 0 -24.3476 -2.18783 -0.975449 -27.8167 -3.92622 1.47595 
-33.1414 -5.17417 2.66298 -33.1414 -5.17417 -1.18702 -28.4771 -4.1671 -1.18702 
-28.4771 -4.1671 2.66298 -22.6031 -0.955218 -2.41272 -22.6031 -0.955218 -1.81272 
-26.6738 -3.44516 -2.41272 -22.6031 -0.955218 0.837276 -24.1841 -2.08379 2.06298 
-24.1841 -2.08379 2.66298 -26.0399 -3.14136 0.250252 -24.1863 25.1654 -3.85 
-20.4368 17.327 -3.85 -30.3776 28.1762 -3.85 -22.4249 8.60135 -3.85 
-36.2454 0.329607 -3.85 -18.7494 22.3318 -3.85 -24.1405 20.3083 -3.85 
-27.4917 2.86094 -3.85 -40.8048 27.2992 -3.85 -35.6302 28.201 -3.85 
-17.913 13.4265 -3.85 -27.7609 22.7654 -3.85 -16.3409 17.9422 -3.85 
-22.6555 13.6867 -3.85 -20.7802 28.1616 -3.85 -25.8166 29.6842 -3.85 
-31.8552 -0.302156 -3.85 -24.9375 16.5539 -3.85 -43.4007 -0.678982 -3.85 
-35.2301 -2.61765 -3.85 -30.5003 -2.3434 -3.85 -40.5793 -1.48797 -3.85 
-39.3995 1.14341 -3.85 -37.4252 -2.30177 -3.85 -34.0503 0.0137258 -3.85 
-34.1066 2.46306 -3.85 -28.0242 5.52955 -3.85 -29.7298 3.72873 -3.85 
-31.9115 2.14718 -3.85 -29.6735 1.27939 -3.85 -28.3186 -0.761846 -3.85 
-24.2458 1.65868 -3.85 -21.7125 4.52889 -3.85 -18.8303 8.37675 -3.85 
-24.9583 5.73115 -3.85 -14.3928 16.6742 -3.85 -14.2506 19.5808 -3.85 
-16.5743 10.7893 -3.85 -15.1789 14.4163 -3.85 -17.1269 15.6843 -3.85 
-17.445 27.4324 -3.85 -19.3901 29.5969 -3.85 -22.2995 31.1073 -3.85 
-33.5235 31.5915 -3.85 -37.2276 30.5904 -3.85 -39.8149 30.1395 -3.85 
-43.8023 27.549 -3.85 -38.2175 27.7501 -3.85 -46.9749 24.0958 -3.85 
-36.0973 25.6166 -3.85 -33.7459 24.8273 -3.85 -43.9774 23.846 -3.85 
-38.6846 25.1657 -3.85 -15.4548 21.7756 -3.85 -16.4296 24.5175 -3.85 
-17.5451 20.137 -3.85 -19.7648 25.2467 -3.85 -24.8177 31.8686 -3.85 
-28.6167 32.333 -3.85 -23.2984 28.9229 -3.85 -30.8973 31.5791 -3.85 
-33.0039 28.1886 -3.85 -28.0971 28.9302 -3.85 -24.8605 10.7986 -3.85 
-25.4908 8.39975 -3.85 -26.7168 17.1816 -3.85 -26.1168 14.7749 -3.85 
-24.9758 13.3413 -3.85 -22.5402 11.144 -3.85 -23.7965 15.1203 -3.85 
-29.8113 22.1095 -3.85 -28.1285 20.2873 -3.85 -26.3183 19.0587 -3.85 
-25.9507 21.5368 -3.85 -24.539 18.4311 -3.85 -31.1196 24.8149 -3.85 
-29.0692 25.4708 -3.85 -20.169 11.0139 -3.85 -27.282 26.6708 -3.85 
-25.9736 23.9654 -3.85 -25.0014 27.4248 -3.85 -21.4678 23.7486 -3.85 
-21.4449 21.32 -3.85 -24.1634 22.7368 -3.85 -22.4832 26.6635 -3.85 
-19.5931 19.8294 -3.85 -22.2886 18.8177 -3.85 -18.3888 17.6346 -3.85 
-22.6871 16.9405 -3.85 -19.1749 15.3767 -3.85 -20.2843 13.5566 -3.85 
-21.5461 15.5068 -3.85 -24.1863 25.1654 3.85 -20.4368 17.327 3.85 
-30.3776 28.1762 3.85 -22.4249 8.60135 3.85 -36.2454 0.329607 3.85 
-18.7494 22.3318 3.85 -24.1405 20.3083 3.85 -27.4917 2.86094 3.85 
-40.8048 27.2992 3.85 -35.6302 28.201 3.85 -17.913 13.4265 3.85 
-27.7609 22.7654 3.85 -16.3409 17.9422 3.85 -22.6555 13.6867 3.85 
-20.7802 28.1616 3.85 -25.8166 29.6842 3.85 -31.8552 -0.302156 3.85 
-24.9375 16.5539 3.85 -43.4007 -0.678982 3.85 -30.5003 -2.3434 3.85 
-35.2301 -2.61765 3.85 -40.5793 -1.48797 3.85 -37.4252 -2.30177 3.85 
-39.3995 1.14341 3.85 -34.0503 0.0137258 3.85 -34.1066 2.46306 3.85 
-29.7298 3.72873 3.85 -28.0242 5.52955 3.85 -31.9115 2.14718 3.85 
-29.6735 1.27939 3.85 -24.2458 1.65868 3.85 -28.3186 -0.761846 3.85 
-18.8303 8.37675 3.85 -21.7125 4.52889 3.85 -24.9583 5.73115 3.85 
-14.2506 19.5808 3.85 -14.3928 16.6742 3.85 -15.1789 14.4163 3.85 
-16.5743 10.7893 3.85 -17.1269 15.6843 3.85 -19.3901 29.5969 3.85 
-17.445 27.4324 3.85 -22.2995 31.1073 3.85 -37.2276 30.5904 3.85 
-33.5235 31.5915 3.85 -43.8023 27.549 3.85 -39.8149 30.1395 3.85 
-38.2175 27.7501 3.85 -46.9749 24.0958 3.85 -33.7459 24.8273 3.85 
-36.0973 25.6166 3.85 -38.6846 25.1657 3.85 -43.9774 23.846 3.85 
-16.4296 24.5175 3.85 -15.4548 21.7756 3.85 -17.5451 20.137 3.85 
-19.7648 25.2467 3.85 -28.6167 32.333 3.85 -24.8177 31.8686 3.85 
-23.2984 28.9229 3.85 -33.0039 28.1886 3.85 -30.8973 31.5791 3.85 
-28.0971 28.9302 3.85 -25.4908 8.39975 3.85 -24.8605 10.7986 3.85 
-26.1168 14.7749 3.85 -26.7168 17.1816 3.85 -22.5402 11.144 3.85 
-24.9758 13.3413 3.85 -23.7965 15.1203 3.85 -28.1285 20.2873 3.85 
-29.8113 22.1095 3.85 -25.9507 21.5368 3.85 -26.3183 19.0587 3.85 
-24.539 18.4311 3.85 -31.1196 24.8149 3.85 -29.0692 25.4708 3.85 
-20.169 11.0139 3.85 -25.9736 23.9654 3.85 -27.282 26.6708 3.85 
-25.0014 27.4248 3.85 -24.1634 22.7368 3.85 -21.4449 21.32 3.85 
-21.4678 23.7486 3.85 -22.4832 26.6635 3.85 -22.2886 18.8177 3.85 
[...]
POINT_DATA 949
FIELD FieldData 24
Displacement 3 949 double
0 0 0 0 0 0 -5.48976e-06 -1.02445e-06 -6.17456e-07 
-5.57959e-06 -1.05229e-06 6.42077e-07 0 0 0 0 0 0 
-1.04656e-05 -1.78576e-05 -1.01106e-06 -1.0385e-05 -1.7866e-05 -6.85298e-07 -1.07381e-05 -1.79496e-05 7.64763e-07 
-1.07368e-05 -1.79347e-05 1.07929e-06 4.03134e-06 -3.49307e-05 -2.20558e-07 3.36478e-05 -2.69386e-05 2.7293e-07 
3.45461e-05 8.47968e-06 -5.05642e-07 -1.29425e-05 6.41469e-05 4.06914e-07 0 0 0 
3.96897e-06 -3.44119e-05 2.6581e-07 3.39537e-05 -2.68417e-05 -1.65767e-06 3.46153e-05 8.72395e-06 3.26491e-07 
-1.27978e-05 6.41809e-05 3.86491e-07 0 0 0 2.92787e-06 -3.42919e-05 -3.69184e-07 
-0.00024627 -0.000241435 -5.81604e-05 -0.000250386 -0.000231692 5.92236e-05 2.99271e-06 -3.40123e-05 3.65214e-07 
3.36097e-05 -2.69516e-05 3.14603e-08 3.37808e-05 -2.68561e-05 -1.427e-06 0.000238281 -0.0002413 5.06154e-05 
0.000200964 -0.0145368 -0.000104188 -5.00531e-05 -0.018777 -0.000131064 -0.00198973 -0.0186587 -0.000129056 
-0.00172591 -0.0144202 -0.000103066 -0.00172179 -0.0144201 -0.000102208 0.000245201 -0.000238324 -5.25868e-05 
0.00020538 -0.0145367 -0.000105015 -4.59808e-05 -0.0187768 -0.000130999 -0.00198569 -0.0186585 -0.00012906 
0 0 0 -5.51417e-06 -1.17857e-06 2.71853e-08 -2.31847e-06 3.48555e-08 -4.8598e-07 
-9.8339e-07 1.09395e-07 -2.99051e-07 -3.76676e-06 -2.49974e-07 -5.78149e-07 -2.33234e-06 4.13642e-08 4.58074e-07 
-9.8866e-07 1.12189e-07 2.94067e-07 -3.81631e-06 -2.88415e-07 5.61117e-07 0 0 0 
0 0 0 0 0 0 0 0 0 
0 0 0 0 0 0 0 0 0 
0 0 0 0 0 0 -1.04071e-05 -1.78519e-05 -8.5578e-07 
-1.06161e-05 -1.8002e-05 3.44778e-08 -1.07148e-05 -1.79295e-05 9.25099e-07 -1.03226e-05 -8.45173e-06 -5.6889e-07 
-8.45519e-06 -3.91599e-06 -5.65823e-07 -1.06099e-05 -1.35297e-05 -5.61188e-07 -1.02668e-05 -8.37854e-06 7.19669e-07 
-8.454e-06 -3.84514e-06 6.94351e-07 -1.07133e-05 -1.34751e-05 6.72956e-07 -1.0241e-05 -2.83292e-05 -1.08851e-06 
-1.15809e-05 -2.29266e-05 -1.50708e-06 -5.73439e-06 -3.19452e-05 -6.33481e-07 2.37849e-05 -3.67384e-05 1.45962e-07 
3.27423e-05 -3.3374e-05 6.99439e-07 1.40259e-05 -3.64426e-05 -2.65777e-07 2.97619e-05 -3.57562e-05 3.81857e-07 
3.33553e-05 -3.01774e-05 6.44145e-07 3.49221e-05 -1.98131e-05 -3.58875e-07 3.65487e-05 -8.80929e-06 -5.43781e-07 
3.41605e-05 -2.35875e-05 -1.77739e-07 3.58564e-05 -1.48302e-05 -4.78862e-07 3.64737e-05 -1.01964e-06 -6.07963e-07 
1.88191e-05 3.62953e-05 1.21129e-07 2.83736e-05 2.26956e-05 -9.91783e-08 3.95758e-06 5.14994e-05 2.8722e-07 
-6.40125e-06 3.74996e-05 2.36616e-07 -9.66651e-06 5.08743e-05 3.3099e-07 -2.33524e-06 1.97427e-05 -7.77785e-08 
-3.25886e-06 -8.22519e-06 -6.37441e-07 1.23485e-06 -8.85671e-06 -1.13152e-08 9.97082e-06 -8.2689e-06 -4.23726e-07 
1.13592e-05 -6.40989e-06 1.2502e-06 -2.18952e-06 -5.9017e-06 -1.26428e-06 -1.95064e-06 -8.79952e-06 -1.14577e-07 
5.86327e-06 -8.52607e-06 -3.5049e-07 1.17594e-05 -7.64038e-06 1.56463e-07 7.43637e-06 -4.24805e-06 2.3728e-06 
-1.06935e-05 -2.82027e-05 1.48761e-06 -1.16402e-05 -2.29689e-05 1.5582e-06 -5.60211e-06 -3.16831e-05 9.92381e-07 
2.35696e-05 -3.61898e-05 -1.1958e-06 3.32859e-05 -3.29864e-05 -2.14009e-06 1.41834e-05 -3.59623e-05 -3.48527e-07 
2.99637e-05 -3.52424e-05 -1.77184e-06 3.39327e-05 -2.99911e-05 -2.1304e-06 3.51599e-05 -1.96324e-05 -6.98116e-07 
3.67464e-05 -8.67689e-06 -4.13059e-08 3.43993e-05 -2.33509e-05 -1.01824e-06 3.60802e-05 -1.46638e-05 -3.45045e-07 
3.66443e-05 -8.89467e-07 2.40074e-07 1.90186e-05 3.63874e-05 2.35278e-07 2.85885e-05 2.25551e-05 3.21812e-07 
4.12328e-06 5.15732e-05 3.0303e-07 -6.24023e-06 3.75531e-05 2.01688e-07 -9.50626e-06 5.09357e-05 3.04729e-07 
-2.20119e-06 1.98172e-05 3.28371e-07 -3.30792e-06 -8.09789e-06 5.27516e-07 1.26588e-06 -8.74258e-06 -8.68513e-08 
1.01025e-05 -8.11481e-06 3.17377e-07 1.15206e-05 -6.25272e-06 -1.32472e-06 -2.22797e-06 -5.79778e-06 1.19091e-06 
-1.96507e-06 -8.70175e-06 1.68924e-08 5.94141e-06 -8.39709e-06 2.51917e-07 1.19266e-05 -7.47635e-06 -2.52921e-07 
7.52406e-06 -4.18405e-06 -2.45759e-06 0 0 0 0 0 0 
0 0 0 3.6287e-06 -3.47272e-05 -2.72536e-07 -1.12372e-05 -2.88249e-05 -7.53172e-07 
-1.21062e-05 -2.32643e-05 -1.16733e-06 -7.48182e-06 -3.21341e-05 -6.04295e-07 -0.000248536 -0.000242994 1.12582e-06 
-1.85589e-05 -3.81503e-05 -3.64721e-07 -6.52286e-05 -8.21241e-05 -2.01823e-05 -1.3249e-05 -2.49329e-05 -1.43465e-06 
-2.02522e-05 -3.79837e-05 5.68993e-07 -5.64129e-05 -7.97864e-05 2.1718e-05 -1.35986e-05 -2.52797e-05 1.24796e-06 
-1.18539e-05 -2.8728e-05 1.14593e-06 -1.21219e-05 -2.32752e-05 1.19474e-06 -7.18239e-06 -3.18974e-05 9.81045e-07 
3.6379e-06 -3.43251e-05 3.00904e-07 3.35952e-05 -2.69274e-05 1.6891e-07 2.52943e-05 -3.6725e-05 9.99762e-08 
3.38982e-05 -3.38936e-05 3.60179e-07 1.47501e-05 -3.59095e-05 -1.72562e-07 3.14627e-05 -3.61393e-05 2.92335e-07 
3.38782e-05 -3.04535e-05 3.50227e-07 3.37596e-05 -2.70714e-05 -6.70274e-07 3.38357e-05 -2.68287e-05 -1.54596e-06 
3.44947e-05 8.82828e-06 -7.62076e-08 -1.28726e-05 6.41752e-05 4.01339e-07 2.5053e-05 -3.6311e-05 -1.20586e-06 
3.4561e-05 -3.35467e-05 -1.85643e-06 1.47652e-05 -3.56378e-05 -3.70874e-07 3.16346e-05 -3.56298e-05 -1.68788e-06 
3.44238e-05 -3.03461e-05 -1.82139e-06 4.11426e-05 -4.41735e-05 3.17647e-07 3.54257e-05 -3.34653e-05 4.57408e-07 
8.72192e-05 -8.96282e-05 2.27482e-05 0.000605728 -0.00126763 -5.20135e-06 0.000625586 -0.00307576 -2.29822e-05 
0.000593565 -0.00511668 -3.88643e-05 0.000532183 -0.00731665 -5.5592e-05 0.000444335 -0.00964208 -7.19977e-05 
0.000332525 -0.0120598 -8.80413e-05 0.000524828 -0.000661008 2.19589e-05 0.00062547 -0.00214168 -1.39659e-05 
0.000613651 -0.00407422 -3.09411e-05 0.000566357 -0.00619886 -4.71615e-05 0.000491318 -0.00846585 -6.39982e-05 
0.000391217 -0.0108414 -7.97793e-05 0.000269182 -0.0132929 -9.61373e-05 7.80885e-05 -0.016655 -0.000117755 
0.0001407 -0.0155948 -0.000111024 1.43631e-05 -0.017716 -0.000124416 -0.00101988 -0.0187177 -0.000130079 
-0.00185972 -0.0165369 -0.00011605 -0.00179363 -0.0154771 -0.000109597 -0.00192503 -0.0175977 -0.000122516 
-0.000695619 -0.0012148 -1.44474e-05 -0.000874195 -0.00300526 -2.73173e-05 -0.00104356 -0.00503275 -4.20813e-05 
-0.00121569 -0.00722093 -5.75558e-05 -0.00138877 -0.00953678 -7.27021e-05 -0.0015602 -0.0119474 -8.75274e-05 
-0.000558092 -0.00062779 -3.43561e-05 -0.000789482 -0.002079 -2.1511e-05 -0.000958722 -0.00399666 -3.45736e-05 
-0.00112935 -0.00610872 -4.98512e-05 -0.00130229 -0.00836482 -6.53166e-05 -0.00147482 -0.0107322 -8.01713e-05 
-0.00164401 -0.0131781 -9.52601e-05 -0.00172387 -0.0144202 -0.000102638 -0.000692262 -0.00121368 -3.47598e-06 
-0.00087089 -0.00300505 -2.13603e-05 -0.00103942 -0.00503253 -3.73075e-05 -0.00121144 -0.00722069 -5.37732e-05 
-0.00138482 -0.00953643 -6.99047e-05 -0.00155591 -0.0119472 -8.5746e-05 -0.000557608 -0.00062398 2.83207e-05 
-0.000785186 -0.00207855 -1.22021e-05 -0.000954585 -0.00399658 -2.9276e-05 -0.00112508 -0.00610869 -4.55537e-05 
-0.00129823 -0.00836477 -6.2017e-05 -0.00147094 -0.010732 -7.78655e-05 -0.00163971 -0.0131778 -9.39421e-05 
4.26504e-05 -4.34529e-05 -2.11702e-06 3.61212e-05 -3.30383e-05 -2.1796e-06 8.06635e-05 -8.73508e-05 -2.25742e-05 
0.00060932 -0.00126941 -1.54387e-05 0.00062935 -0.00307565 -2.89134e-05 0.000597863 -0.00511662 -4.36046e-05 
0.000536411 -0.00731651 -5.93852e-05 0.000448112 -0.00964184 -7.47759e-05 0.000336795 -0.0120595 -8.98674e-05 
0.000529213 -0.000656082 -3.5456e-05 0.000629057 -0.00214145 -2.31369e-05 0.000617516 -0.00407398 -3.62382e-05 
0.000570671 -0.00619889 -5.14205e-05 0.000495537 -0.0084655 -6.72942e-05 0.000395226 -0.0108413 -8.20914e-05 
0.000273201 -0.0132926 -9.74756e-05 8.21238e-05 -0.0166549 -0.000117908 0.000144671 -0.0155946 -0.000111446 
1.83451e-05 -0.0177158 -0.000124432 -0.0010158 -0.0187176 -0.000130051 -0.00185584 -0.0165368 -0.000115856 
-0.00178946 -0.015477 -0.000109107 -0.00192102 -0.0175975 -0.00012245 0.000241366 -0.000244251 -7.57584e-07 
0.00020318 -0.0145368 -0.000104601 -4.80082e-05 -0.0187769 -0.00013103 -0.00198771 -0.0186586 -0.000129057 
-9.48801e-07 5.67673e-09 -1.09174e-09 -4.05037e-07 1.96216e-08 -5.276e-08 -4.06481e-07 2.08517e-08 5.16257e-08 
-1.58195e-06 -3.14893e-09 -1.87346e-07 -1.58989e-06 1.69702e-09 1.80072e-07 -3.77271e-06 -4.04542e-07 -1.06958e-08 
-2.29779e-06 -8.65404e-08 3.50512e-09 0 0 0 0 0 0 
0 0 0 0 0 0 0 0 0 
0 0 0 0 0 0 0 0 0 
0 0 0 0 0 0 0 0 0 
0 0 0 -1.05899e-05 -1.39601e-05 -8.64944e-08 -1.05072e-05 -1.00109e-05 3.07598e-07 
-8.75887e-06 -4.42263e-06 5.0527e-07 -8.74655e-06 -4.52643e-06 -1.28619e-07 -1.04072e-05 -9.24728e-06 -1.35597e-07 
-1.04042e-05 -9.19469e-06 5.18074e-07 -1.04905e-05 -1.59514e-05 -4.75997e-07 -1.04678e-05 -1.59495e-05 -3.58008e-07 
-1.0585e-05 -1.13107e-05 -3.10923e-07 -1.05971e-05 -1.59975e-05 2.34508e-07 -1.06525e-05 -1.4129e-05 3.95483e-07 
-1.06793e-05 -1.41216e-05 4.97658e-07 -1.06043e-05 -1.20153e-05 1.26862e-07 2.2152e-05 -1.65662e-05 1.59153e-07 
9.64558e-06 -1.88039e-05 -2.34551e-07 2.29253e-05 -1.03492e-05 4.42779e-07 -5.33087e-06 -1.56176e-05 -7.9125e-07 
-2.9327e-06 -8.94163e-07 -2.00055e-07 2.14062e-05 -2.3121e-05 2.44006e-07 1.443e-05 -1.43087e-05 -5.03722e-08 
-6.18159e-06 -9.7703e-06 -7.82245e-07 1.77233e-05 1.5594e-05 1.66565e-07 2.14798e-05 -8.16773e-07 4.9659e-07 
2.73398e-07 -2.26105e-05 -8.01503e-07 1.57204e-05 -1.08176e-05 2.20144e-07 1.19293e-05 -2.59299e-05 -1.68459e-07 
2.20722e-06 -1.52203e-05 -4.33724e-07 2.92858e-05 -2.26617e-05 1.63969e-07 2.82116e-05 -1.64908e-05 2.54041e-08 
-6.00659e-06 -4.45429e-06 -3.32788e-07 7.78928e-06 -1.23777e-05 -2.8553e-07 -1.35984e-06 5.68645e-08 -2.95147e-07 
-5.77043e-06 -2.26833e-06 -4.42354e-07 -8.22597e-06 -6.58663e-06 -4.66163e-07 -2.57036e-06 -1.56083e-07 -3.88931e-07 
-1.15731e-06 -7.88149e-08 -1.66899e-07 -4.39039e-06 -1.05984e-06 -4.12402e-07 -4.33903e-06 -2.22318e-06 -2.41667e-07 
-1.81649e-06 -7.71942e-07 1.76927e-09 -3.90438e-06 -8.65463e-06 -9.48163e-07 -3.82257e-06 -6.84628e-06 -7.5491e-07 
-4.05259e-06 -3.01174e-06 -1.50751e-07 -6.08214e-06 -7.09171e-06 -5.43603e-07 -8.18019e-06 -9.18615e-06 -5.66653e-07 
-8.71763e-06 -1.41815e-05 -8.40236e-07 -9.24987e-06 -1.72174e-05 -1.0362e-06 -7.89421e-06 -2.137e-05 -1.22529e-06 
-5.90984e-06 -1.25304e-05 -8.1018e-07 8.51198e-06 -2.95969e-05 -3.22383e-07 1.75871e-05 -3.07223e-05 2.36759e-07 
-6.01723e-06 -2.54664e-05 -1.19301e-06 1.41253e-06 -2.80247e-05 -9.38941e-07 5.61134e-06 -2.40742e-05 -5.21471e-07 
3.1004e-05 -2.73963e-05 5.70685e-07 3.1969e-05 -2.50796e-05 2.21523e-07 3.19275e-05 -2.14615e-05 -7.585e-08 
3.00373e-05 -5.06369e-06 -8.04058e-08 2.79223e-05 3.77102e-06 -2.47192e-08 2.66764e-05 1.18645e-05 -1.15026e-07 
1.81664e-05 2.58296e-05 7.74722e-08 1.9795e-05 6.65091e-06 3.03194e-07 6.15372e-06 3.69322e-05 2.0332e-07 
1.29886e-05 -1.49799e-06 1.08033e-06 1.27955e-05 -5.30793e-06 1.50966e-06 5.23068e-06 2.67575e-05 5.27777e-08 
1.03393e-05 8.81047e-06 2.00493e-07 2.29428e-05 -2.90657e-05 4.62537e-07 2.80521e-05 -2.82936e-05 7.13515e-07 
1.73114e-05 -2.43141e-05 5.12671e-08 2.60119e-05 -2.29415e-05 2.05804e-07 3.19429e-05 -1.83164e-05 -1.69361e-07 
3.1725e-05 -1.32298e-05 -2.02634e-07 2.85381e-05 -1.95066e-05 7.58977e-08 3.00322e-05 -9.8035e-06 -6.08107e-08 
2.19498e-05 -6.28607e-06 5.83273e-07 2.5661e-05 -1.33897e-05 2.12483e-07 -2.0394e-06 -1.2129e-05 -3.82687e-07 
-4.09868e-06 -1.13008e-05 -6.12969e-07 8.95967e-06 -1.01148e-05 -3.48842e-07 4.50604e-06 -1.06503e-05 -2.77896e-07 
1.81655e-06 -1.20865e-05 -2.37542e-07 -2.1312e-06 -1.53317e-05 -5.95938e-07 5.02616e-06 -1.3779e-05 -3.41508e-07 
1.34046e-05 -8.43702e-06 7.24737e-07 1.28129e-05 -9.30316e-06 -1.66878e-09 1.17808e-05 -1.09708e-05 -1.68554e-07 
1.536e-05 -1.23892e-05 6.5862e-08 1.11942e-05 -1.32455e-05 -1.79922e-07 1.53516e-05 -8.3803e-06 9.68965e-07 
1.84715e-05 -1.08011e-05 4.09412e-07 -3.30679e-06 -1.89129e-05 -8.12192e-07 2.21906e-05 -1.35061e-05 2.86649e-07 
1.88252e-05 -1.36145e-05 1.96056e-07 2.51268e-05 -1.66767e-05 1.1922e-07 2.19439e-05 -1.961e-05 1.67848e-07 
1.76231e-05 -1.85122e-05 6.33207e-08 1.83107e-05 -1.5329e-05 7.60824e-08 2.5901e-05 -1.96461e-05 1.52683e-07 
1.55193e-05 -2.07741e-05 7.51376e-09 1.24019e-05 -1.6418e-05 -1.43772e-07 1.0679e-05 -2.21408e-05 -2.1972e-07 
8.63394e-06 -1.54976e-05 -2.61134e-07 5.18891e-06 -2.05174e-05 -4.98637e-07 1.4096e-06 -1.86848e-05 -5.86985e-07 
5.67519e-06 -1.69233e-05 -3.51926e-07 2.24275e-05 -1.63388e-05 -7.6985e-07 9.7249e-06 -1.85688e-05 -7.56021e-08 
2.31134e-05 -1.01346e-05 -8.28675e-07 -5.33835e-06 -1.5587e-05 6.97044e-07 -2.90447e-06 -8.73133e-07 2.5127e-07 
2.17472e-05 -2.28359e-05 -9.18667e-07 1.45971e-05 -1.41391e-05 -3.23278e-07 -6.01754e-06 -9.88572e-06 7.9581e-07 
1.78946e-05 1.55757e-05 -5.57091e-08 2.1803e-05 -7.85519e-07 -6.26064e-07 2.42381e-07 -2.24663e-05 6.56417e-07 
1.59939e-05 -1.06521e-05 -5.80061e-07 1.2002e-05 -2.55984e-05 -2.82247e-07 2.23011e-06 -1.50747e-05 3.03386e-07 
2.95612e-05 -2.24869e-05 -1.1469e-06 2.84455e-05 -1.63078e-05 -7.54322e-07 -6.07823e-06 -4.50803e-06 4.38291e-07 
7.87005e-06 -1.22313e-05 9.69387e-08 -1.35203e-06 4.26208e-08 2.95522e-07 -8.22297e-06 -6.54118e-06 6.10991e-07 
-5.77228e-06 -2.2366e-06 5.12963e-07 -2.58124e-06 -1.91746e-07 3.95369e-07 -4.41515e-06 -1.06736e-06 4.54392e-07 
-1.15185e-06 -7.65365e-08 1.74145e-07 -4.29515e-06 -2.17358e-06 3.18686e-07 -1.88409e-06 -7.5289e-07 6.42573e-08 
-3.69395e-06 -6.70336e-06 7.48467e-07 -3.93798e-06 -8.58218e-06 8.89025e-07 -3.89718e-06 -2.69709e-06 1.14144e-07 
-6.16743e-06 -6.84991e-06 5.78755e-07 -8.68665e-06 -1.41097e-05 8.96399e-07 -8.22302e-06 -9.10191e-06 6.50788e-07 
-8.09166e-06 -2.13922e-05 1.2752e-06 -9.12299e-06 -1.71262e-05 1.02855e-06 -6.1498e-06 -1.24454e-05 7.84418e-07 
1.76514e-05 -3.01998e-05 -9.49087e-07 8.37572e-06 -2.93144e-05 1.04865e-07 1.48574e-06 -2.77643e-05 8.36951e-07 
-6.01992e-06 -2.53121e-05 1.34969e-06 5.67672e-06 -2.38597e-05 2.51702e-07 3.22264e-05 -2.48857e-05 -1.41646e-06 
3.15239e-05 -2.72368e-05 -1.83113e-06 3.21812e-05 -2.12665e-05 -9.25665e-07 2.81495e-05 3.96789e-06 -1.43015e-07 
3.02384e-05 -4.98337e-06 -2.85402e-07 1.83046e-05 2.58335e-05 1.65089e-07 2.69206e-05 1.19345e-05 8.90833e-08 
1.99911e-05 7.0507e-06 -2.94544e-07 6.2966e-06 3.69989e-05 1.90122e-07 1.29586e-05 -5.25337e-06 -1.68103e-06 
1.31263e-05 -1.43258e-06 -1.12953e-06 1.04996e-05 8.90084e-06 -1.2695e-07 5.3631e-06 2.67934e-05 2.39042e-07 
2.8304e-05 -2.78694e-05 -1.86383e-06 2.30082e-05 -2.85823e-05 -1.43757e-06 1.74296e-05 -2.40018e-05 -6.67653e-07 
2.63501e-05 -2.26659e-05 -1.10854e-06 3.19498e-05 -1.30613e-05 -4.46211e-07 3.21837e-05 -1.81379e-05 -7.13174e-07 
2.88006e-05 -1.93353e-05 -9.26062e-07 2.21231e-05 -6.38562e-06 -8.59364e-07 3.02159e-05 -9.63834e-06 -4.17951e-07 
2.58834e-05 -1.32064e-05 -7.70472e-07 -4.12821e-06 -1.12122e-05 5.32674e-07 -2.04934e-06 -1.20525e-05 3.02381e-07 
4.57299e-06 -1.05287e-05 1.53156e-07 9.06512e-06 -9.96922e-06 1.92742e-07 -2.17514e-06 -1.52363e-05 5.18247e-07 
1.84853e-06 -1.1968e-05 1.26435e-07 5.12236e-06 -1.36096e-05 1.80985e-07 1.2987e-05 -9.13502e-06 -1.97752e-07 
1.36108e-05 -8.27557e-06 -9.35458e-07 1.56062e-05 -1.21933e-05 -4.25386e-07 1.19216e-05 -1.08149e-05 -6.11994e-08 
1.13183e-05 -1.30898e-05 -9.9282e-08 1.54991e-05 -8.22411e-06 -1.23573e-06 1.86251e-05 -1.06736e-05 -7.82291e-07 
-3.37376e-06 -1.87876e-05 7.28026e-07 1.9127e-05 -1.34216e-05 -6.71327e-07 2.22884e-05 -1.33787e-05 -7.84601e-07 
2.52986e-05 -1.65045e-05 -7.84425e-07 1.86268e-05 -1.51176e-05 -5.70618e-07 1.78138e-05 -1.82463e-05 -5.94e-07 
2.22999e-05 -1.93631e-05 -8.52976e-07 2.61106e-05 -1.94259e-05 -9.47392e-07 1.25425e-05 -1.62107e-05 -2.26237e-07 
1.56727e-05 -2.04895e-05 -4.93488e-07 1.07729e-05 -2.18705e-05 -1.59202e-07 8.70334e-06 -1.53015e-05 1.41148e-09 
5.19935e-06 -2.03096e-05 2.57371e-07 5.71944e-06 -1.67394e-05 1.47321e-07 1.42283e-06 -1.85285e-05 4.67128e-07 
1.17681e-05 -7.89458e-06 -6.4896e-08 5.99609e-06 -8.69663e-06 -5.61159e-08 -1.34383e-06 -8.92213e-06 -4.66525e-08 
9.12645e-06 -5.02232e-06 -2.48236e-09 -2.64984e-06 -6.82831e-06 -4.49719e-08 -1.38304e-06 -4.0652e-06 -3.96344e-08 
-1.64056e-06 -4.13375e-06 -4.38763e-07 -3.08128e-06 -7.76149e-06 -4.45408e-07 -1.65737e-06 -4.02425e-06 3.71779e-07 
-3.10783e-06 -7.67976e-06 3.37788e-07 1.06398e-05 -5.78948e-06 7.27439e-07 5.59774e-06 -2.05776e-06 7.27854e-07 
4.88643e-06 -2.72353e-06 -2.05879e-08 5.58654e-06 -2.05281e-06 -7.42886e-07 1.06993e-05 -5.72026e-06 -7.81465e-07 
-2.65029e-06 -8.78006e-06 -2.22289e-07 -1.21902e-07 -8.95102e-06 -5.09492e-08 -2.93233e-06 -8.24915e-06 -4.75231e-08 
3.61066e-06 -8.73021e-06 -1.10018e-07 7.97018e-06 -8.49588e-06 -2.02659e-07 1.92421e-06 -8.97204e-06 -4.49341e-08 
1.09995e-05 -8.2025e-06 -1.70654e-07 1.22295e-05 -7.3542e-06 3.05402e-07 9.48328e-06 -8.39834e-06 -6.55395e-08 
1.18128e-05 -6.70062e-06 -4.65523e-08 -1.14561e-07 -8.88385e-06 -4.0566e-08 -2.65245e-06 -8.71858e-06 1.18585e-07 
8.00951e-06 -8.41546e-06 9.49802e-08 3.64485e-06 -8.65588e-06 1.36194e-08 1.22946e-05 -7.28043e-06 -4.0247e-07 
1.10709e-05 -8.119e-06 5.5538e-08 -1.1742e-05 -2.30422e-05 -1.33852e-06 -1.05808e-05 -2.85075e-05 -9.23217e-07 
-6.25701e-06 -3.20614e-05 -5.68372e-07 -1.357e-05 -2.52424e-05 -1.22203e-07 -1.83984e-05 -3.83799e-05 4.49085e-07 
-5.81218e-05 -8.19807e-05 -4.62425e-06 -1.17e-05 -2.30426e-05 1.38024e-06 -1.10816e-05 -2.8397e-05 1.31977e-06 
-6.06021e-06 -3.18256e-05 9.36182e-07 1.43193e-05 -3.63576e-05 -2.3802e-07 2.43021e-05 -3.67586e-05 1.15567e-07 
3.35083e-05 -3.02622e-05 5.02947e-07 3.31261e-05 -3.3565e-05 5.34772e-07 3.0266e-05 -3.58477e-05 3.00511e-07 
3.44005e-05 -2.21887e-05 -5.62184e-07 3.58231e-05 -1.49784e-05 -4.26197e-07 3.66798e-05 -3.06173e-06 -2.20828e-07 
3.39043e-05 -2.46222e-05 -3.69055e-07 3.38663e-05 -2.46124e-05 -2.7738e-07 3.46476e-05 -2.09834e-05 -4.23751e-07 
3.60874e-05 2.53391e-06 6.06248e-08 3.59918e-05 2.4757e-06 -3.56993e-07 3.66702e-05 -6.00297e-06 -3.98559e-07 
3.43605e-05 -2.3344e-05 -9.59466e-07 3.67785e-05 -5.95324e-06 -1.14006e-07 3.39683e-05 -2.45359e-05 -8.63264e-07 
3.47587e-05 -2.0872e-05 -6.69683e-07 3.62299e-05 -1.19934e-05 -4.47809e-07 3.5357e-05 -1.74546e-05 -4.43993e-07 
3.51214e-05 -1.87556e-05 -5.00472e-07 3.65228e-05 -9.64906e-06 -3.18625e-07 3.63395e-05 -1.19112e-05 -2.67351e-07 
3.54649e-05 -1.73674e-05 -5.06765e-07 2.84628e-05 2.27589e-05 8.44901e-08 1.89131e-05 3.63693e-05 1.59833e-07 
4.03253e-06 5.15597e-05 2.91617e-07 -2.07899e-06 1.98501e-05 1.25216e-07 -9.59273e-06 5.09147e-05 3.21883e-07 
-1.1269e-05 5.75424e-05 3.69186e-07 -1.11958e-05 5.75668e-05 3.52605e-07 -7.99316e-06 4.42236e-05 2.82326e-07 
-8.31662e-07 1.03293e-05 6.5673e-08 -6.68641e-07 1.02953e-05 8.4231e-09 -4.19726e-06 2.86991e-05 1.25459e-07 
-7.91567e-06 4.42647e-05 2.67801e-07 -6.20624e-07 1.0331e-05 1.29541e-07 -4.08368e-06 2.87172e-05 2.23909e-07 
-6.30885e-06 3.75804e-05 2.42788e-07 1.42686e-05 -3.59371e-05 -3.24293e-07 3.39825e-05 -3.00906e-05 -1.98282e-06 
2.40866e-05 -3.62915e-05 -1.18758e-06 3.3709e-05 -3.32032e-05 -2.00157e-06 3.0438e-05 -3.53604e-05 -1.69342e-06 
-3.03618e-05 -0.000498037 -6.28821e-06 -2.29282e-05 -4.54292e-05 -5.72521e-06 4.55274e-07 -8.25642e-05 -5.18554e-06 
-0.000687294 -0.0132345 -9.56994e-05 -0.000281071 -0.00615064 -4.85281e-05 -0.000172114 -0.00403145 -3.27828e-05 
-0.000405161 -0.00841288 -6.46005e-05 -0.000541654 -0.0107851 -8.00086e-05 -8.143e-05 -0.0021035 -1.80016e-05 
3.81453e-05 -5.48241e-05 3.73259e-06 -0.000826414 -0.0155355 -0.00011027 -0.000955348 -0.0176567 -0.000123479 
-1.4754e-05 -3.32656e-05 -7.14189e-07 3.07359e-05 -4.443e-05 1.44203e-06 1.67977e-05 -4.21161e-05 5.82666e-07 
-9.46691e-06 -3.90283e-05 -2.34792e-06 -1.59004e-05 -3.72642e-05 -1.87628e-06 1.60698e-06 -4.84972e-05 -1.64978e-06 
-1.96983e-05 -5.95058e-05 -5.67354e-06 2.58166e-05 -6.55898e-05 8.0763e-07 -2.06455e-05 -4.10761e-05 -2.58861e-06 
-8.40698e-05 -9.9567e-05 -3.06407e-05 -0.000210939 -0.000310176 -3.37112e-05 -0.000347525 -0.000845022 -1.05174e-05 
-9.11985e-05 -0.000135063 -3.2293e-05 -1.93269e-05 -0.000214401 -7.31594e-06 3.73741e-05 -3.87586e-05 4.44818e-07 