# vtk DataFile Version 4.1
vtk output
ASCII
DATASET UNSTRUCTURED_GRID
POINTS 1886 float
0 0 10 0 0 0 0 10 10 
0 10 0 10 0 10 10 0 0 
10 10 10 10 10 0 30 0 10 
30 0 0 30 10 10 30 10 0 
10 0 20 10 10 20 30 0 20 
30 10 20 0 0 3.33333 0 0 6.66667 
0 0 1.66667 0 0 5 0 0 8.33333 
0 3.33333 10 0 6.66667 10 0 1.66667 10 
0 5 10 0 8.33333 10 0 10 3.33333 
0 10 6.66667 0 10 1.66667 0 10 5 
0 10 8.33333 0 3.33333 0 0 6.66667 0 
0 1.66667 0 0 5 0 0 8.33333 0 
10 0 3.33333 10 0 6.66667 10 0 1.66667 
10 0 5 10 0 8.33333 10 3.33333 10 
10 6.66667 10 10 1.66667 10 10 5 10 
10 8.33333 10 10 10 3.33333 10 10 6.66667 
10 10 1.66667 10 10 5 10 10 8.33333 
10 3.33333 0 10 6.66667 0 10 1.66667 0 
10 5 0 10 8.33333 0 3.33333 0 0 
6.66667 0 0 1.66667 0 0 5 0 0 
8.33333 0 0 3.33333 0 10 6.66667 0 10 
1.66667 0 10 5 0 10 8.33333 0 10 
3.33333 10 0 6.66667 10 0 1.66667 10 0 
5 10 0 8.33333 10 0 3.33333 10 10 
6.66667 10 10 1.66667 10 10 5 10 10 
8.33333 10 10 30 0 3.33333 30 0 6.66667 
30 0 1.66667 30 0 5 30 0 8.33333 
30 3.33333 10 30 6.66667 10 30 1.66667 10 
30 5 10 30 8.33333 10 30 10 3.33333 
30 10 6.66667 30 10 1.66667 30 10 5 
30 10 8.33333 30 3.33333 0 30 6.66667 0 
30 1.66667 0 30 5 0 30 8.33333 0 
13.3333 0 0 16.6667 0 0 20 0 0 
23.3333 0 0 26.6667 0 0 11.6667 0 0 
15 0 0 18.3333 0 0 21.6667 0 0 
25 0 0 28.3333 0 0 13.3333 0 10 
16.6667 0 10 20 0 10 23.3333 0 10 
26.6667 0 10 11.6667 0 10 15 0 10 
18.3333 0 10 21.6667 0 10 25 0 10 
28.3333 0 10 13.3333 10 0 16.6667 10 0 
20 10 0 23.3333 10 0 26.6667 10 0 
11.6667 10 0 15 10 0 18.3333 10 0 
21.6667 10 0 25 10 0 28.3333 10 0 
13.3333 10 10 16.6667 10 10 20 10 10 
23.3333 10 10 26.6667 10 10 11.6667 10 10 
15 10 10 18.3333 10 10 21.6667 10 10 
25 10 10 28.3333 10 10 10 0 13.3333 
10 0 16.6667 10 0 11.6667 10 0 15 
10 0 18.3333 10 3.33333 20 10 6.66667 20 
10 1.66667 20 10 5 20 10 8.33333 20 
10 10 13.3333 10 10 16.6667 10 10 11.6667 
10 10 15 10 10 18.3333 30 0 13.3333 
30 0 16.6667 30 0 11.6667 30 0 15 
30 0 18.3333 30 3.33333 20 30 6.66667 20 
30 1.66667 20 30 5 20 30 8.33333 20 
30 10 13.3333 30 10 16.6667 30 10 11.6667 
30 10 15 30 10 18.3333 13.3333 0 20 
16.6667 0 20 20 0 20 23.3333 0 20 
26.6667 0 20 11.6667 0 20 15 0 20 
18.3333 0 20 21.6667 0 20 25 0 20 
28.3333 0 20 13.3333 10 20 16.6667 10 20 
20 10 20 23.3333 10 20 26.6667 10 20 
11.6667 10 20 15 10 20 18.3333 10 20 
21.6667 10 20 25 10 20 28.3333 10 20 
0 5 5 0 2.81079 2.81079 0 2.70914 7.29086 
0 7.18921 7.18921 0 7.29086 2.70914 0 5 8.27381 
0 8.27381 5 0 5 1.72619 0 1.72619 5 
0 3.02124 8.64543 0 1.35457 8.64543 0 1.35457 6.97876 
0 1.40539 3.07206 0 1.40539 1.40539 0 3.07206 1.40539 
0 8.59461 8.59461 0 6.92794 8.59461 0 8.59461 6.92794 
0 6.97876 1.35457 0 8.64543 1.35457 0 8.64543 3.02124 
0 5.83333 9.1369 0 4.16667 9.1369 0 3.85457 7.78233 
0 6.09461 7.73151 0 0.863095 5.83333 0 0.863095 4.16667 
0 2.26849 3.90539 0 2.21767 6.14543 0 4.16667 0.863095 
0 5.83333 0.863095 0 3.90539 2.26849 0 6.14543 2.21767 
0 9.1369 4.16667 0 9.1369 5.83333 0 7.78233 3.85457 
0 7.73151 6.09461 0 3.90539 3.90539 0 5 3.3631 
0 3.3631 5 0 3.85457 6.14543 0 5 6.6369 
0 6.09461 6.09461 0 6.6369 5 0 6.14543 3.85457 
10 5 5 10 2.81079 2.81079 10 7.18921 7.18921 
10 2.70914 7.29086 10 7.29086 2.70914 10 5 8.27381 
10 8.27381 5 10 5 1.72619 10 1.72619 5 
10 1.35457 6.97876 10 1.35457 8.64543 10 3.02124 8.64543 
10 1.40539 1.40539 10 1.40539 3.07206 10 3.07206 1.40539 
10 8.59461 8.59461 10 8.59461 6.92794 10 6.92794 8.59461 
10 8.64543 3.02124 10 8.64543 1.35457 10 6.97876 1.35457 
10 9.1369 5.83333 10 9.1369 4.16667 10 7.78233 3.85457 
10 7.73151 6.09461 10 0.863095 4.16667 10 0.863095 5.83333 
10 2.26849 3.90539 10 2.21767 6.14543 10 4.16667 9.1369 
10 5.83333 9.1369 10 3.85457 7.78233 10 6.09461 7.73151 
10 5.83333 0.863095 10 4.16667 0.863095 10 3.90539 2.26849 
10 6.14543 2.21767 10 5 3.3631 10 3.90539 3.90539 
10 3.3631 5 10 5 6.6369 10 6.09461 6.09461 
10 6.6369 5 10 3.85457 6.14543 10 6.14543 3.85457 
5 0 5 2.81079 0 2.81079 7.18921 0 7.18921 
7.29086 0 2.70914 2.70914 0 7.29086 8.27381 0 5 
5 0 8.27381 1.72619 0 5 5 0 1.72619 
1.35457 0 8.64543 3.02124 0 8.64543 1.35457 0 6.97876 
1.40539 0 1.40539 1.40539 0 3.07206 3.07206 0 1.40539 
6.92794 0 8.59461 8.59461 0 8.59461 8.59461 0 6.92794 
8.64543 0 3.02124 8.64543 0 1.35457 6.97876 0 1.35457 
4.16667 0 9.1369 5.83333 0 9.1369 3.85457 0 7.78233 
6.09461 0 7.73151 0.863095 0 4.16667 0.863095 0 5.83333 
2.26849 0 3.90539 2.21767 0 6.14543 9.1369 0 5.83333 
9.1369 0 4.16667 7.78233 0 3.85457 7.73151 0 6.09461 
5.83333 0 0.863095 4.16667 0 0.863095 3.90539 0 2.26849 
6.14543 0 2.21767 3.90539 0 3.90539 3.3631 0 5 
5 0 3.3631 6.09461 0 6.09461 6.6369 0 5 
5 0 6.6369 6.14543 0 3.85457 3.85457 0 6.14543 
5 10 5 2.81079 10 2.81079 7.29086 10 2.70914 
7.18921 10 7.18921 2.70914 10 7.29086 8.27381 10 5 
5 10 8.27381 1.72619 10 5 5 10 1.72619 
3.02124 10 8.64543 1.35457 10 8.64543 1.35457 10 6.97876 
1.40539 10 1.40539 3.07206 10 1.40539 1.40539 10 3.07206 
8.59461 10 6.92794 8.59461 10 8.59461 6.92794 10 8.59461 
8.64543 10 1.35457 8.64543 10 3.02124 6.97876 10 1.35457 
9.1369 10 4.16667 9.1369 10 5.83333 7.78233 10 3.85457 
7.73151 10 6.09461 5.83333 10 9.1369 4.16667 10 9.1369 
3.85457 10 7.78233 6.09461 10 7.73151 4.16667 10 0.863095 
5.83333 10 0.863095 3.90539 10 2.26849 6.14543 10 2.21767 
0.863095 10 5.83333 0.863095 10 4.16667 2.26849 10 3.90539 
2.21767 10 6.14543 3.3631 10 5 3.90539 10 3.90539 
5 10 3.3631 6.6369 10 5 6.14543 10 3.85457 
6.09461 10 6.09461 5 10 6.6369 3.85457 10 6.14543 
5 5 0 2.81079 2.81079 0 2.70914 7.29086 0 
7.18921 7.18921 0 7.29086 2.70914 0 5 8.27381 0 
8.27381 5 0 5 1.72619 0 1.72619 5 0 
1.40539 3.07206 0 1.40539 1.40539 0 3.07206 1.40539 0 
1.35457 8.64543 0 1.35457 6.97876 0 3.02124 8.64543 0 
8.64543 1.35457 0 8.64543 3.02124 0 6.97876 1.35457 0 
8.59461 8.59461 0 6.92794 8.59461 0 8.59461 6.92794 0 
0.863095 5.83333 0 0.863095 4.16667 0 2.26849 3.90539 0 
2.21767 6.14543 0 5.83333 9.1369 0 4.16667 9.1369 0 
3.85457 7.78233 0 6.09461 7.73151 0 9.1369 4.16667 0 
9.1369 5.83333 0 7.78233 3.85457 0 7.73151 6.09461 0 
4.16667 0.863095 0 5.83333 0.863095 0 3.90539 2.26849 0 
6.14543 2.21767 0 3.90539 3.90539 0 5 3.3631 0 
3.3631 5 0 3.85457 6.14543 0 5 6.6369 0 
6.09461 6.09461 0 6.6369 5 0 6.14543 3.85457 0 
5 5 10 2.81079 2.81079 10 2.70914 7.29086 10 
7.18921 7.18921 10 7.29086 2.70914 10 5 8.27381 10 
8.27381 5 10 5 1.72619 10 1.72619 5 10 
3.07206 1.40539 10 1.40539 1.40539 10 1.40539 3.07206 10 
1.35457 6.97876 10 1.35457 8.64543 10 3.02124 8.64543 10 
8.64543 1.35457 10 6.97876 1.35457 10 8.64543 3.02124 10 
8.59461 8.59461 10 8.59461 6.92794 10 6.92794 8.59461 10 
5.83333 0.863095 10 4.16667 0.863095 10 3.90539 2.26849 10 
6.14543 2.21767 10 0.863095 4.16667 10 0.863095 5.83333 10 
2.26849 3.90539 10 2.21767 6.14543 10 9.1369 5.83333 10 
9.1369 4.16667 10 7.78233 3.85457 10 7.73151 6.09461 10 
4.16667 9.1369 10 5.83333 9.1369 10 3.85457 7.78233 10 
6.09461 7.73151 10 5 3.3631 10 3.90539 3.90539 10 
3.3631 5 10 5 6.6369 10 3.85457 6.14543 10 
6.09461 6.09461 10 6.6369 5 10 6.14543 3.85457 10 
30 5 5 30 2.81079 2.81079 30 2.70914 7.29086 
30 7.18921 7.18921 30 7.29086 2.70914 30 5 8.27381 
30 8.27381 5 30 5 1.72619 30 1.72619 5 
30 1.35457 6.97876 30 1.35457 8.64543 30 3.02124 8.64543 
30 1.40539 1.40539 30 1.40539 3.07206 30 3.07206 1.40539 
30 6.92794 8.59461 30 8.59461 8.59461 30 8.59461 6.92794 
30 8.64543 3.02124 30 8.64543 1.35457 30 6.97876 1.35457 
30 0.863095 4.16667 30 0.863095 5.83333 30 2.26849 3.90539 
30 2.21767 6.14543 30 4.16667 9.1369 30 5.83333 9.1369 
30 3.85457 7.78233 30 6.09461 7.73151 30 9.1369 5.83333 
30 9.1369 4.16667 30 7.78233 3.85457 30 7.73151 6.09461 
30 5.83333 0.863095 30 4.16667 0.863095 30 3.90539 2.26849 
30 6.14543 2.21767 30 5 3.3631 30 3.90539 3.90539 
30 3.3631 5 30 5 6.6369 30 3.85457 6.14543 
30 6.09461 6.09461 30 6.6369 5 30 6.14543 3.85457 
14.8976 0 5 25.1024 0 5 20 0 5 
22.5 0 3.05556 17.6358 0 3.06188 17.6041 0 6.94025 
22.5 0 6.94444 27.0833 0 7.08333 27.0833 0 2.91667 
12.9167 0 7.08333 12.9167 0 2.91667 20.0419 0 2.69954 
20.026 0 7.22117 15.1621 0 2.11516 24.8517 0 7.88549 
24.8517 0 2.11451 15.1589 0 7.88506 28.0595 0 5 
11.8355 0 5 11.4583 0 6.875 11.4583 0 8.54167 
13.125 0 8.54167 11.4583 0 1.45833 11.4583 0 3.125 
13.125 0 1.45833 28.5417 0 8.54167 28.5417 0 6.875 
26.875 0 8.54167 28.5417 0 3.125 28.5417 0 1.45833 
26.875 0 1.45833 10.9178 0 4.16667 10.9178 0 5.83333 
12.3761 0 3.95833 12.3761 0 6.04167 29.0298 0 5.83333 
29.0298 0 4.16667 27.5714 0 3.95833 27.5714 0 6.04167 
15.9144 0 1.05758 14.2477 0 1.05758 14.0394 0 2.51591 
18.8179 0 1.53094 17.1512 0 1.53094 16.399 0 2.58852 
22.9167 0 1.52778 21.25 0 1.52778 21.2709 0 2.87755 
20.0209 0 1.34977 18.8389 0 2.88071 25.7592 0 1.05726 
24.0925 0 1.05726 23.6759 0 2.58503 25.9675 0 2.51559 
14.2461 0 8.94253 15.9128 0 8.94253 14.0378 0 7.4842 
17.1354 0 8.47013 18.802 0 8.47013 16.3815 0 7.41266 
21.25 0 8.47222 22.9167 0 8.47222 18.815 0 7.08071 
20.013 0 8.61059 21.263 0 7.08281 24.0925 0 8.94274 
25.7592 0 8.94274 23.6759 0 7.41497 25.9675 0 7.48441 
16.2667 0 4.03094 17.6199 0 5.00107 16.2509 0 5.97013 
15.0299 0 3.55758 15.0283 0 6.44253 13.9072 0 6.04167 
13.3666 0 5 13.9072 0 3.95833 23.8012 0 4.02778 
23.8012 0 5.97222 22.5 0 5 24.977 0 3.55726 
24.977 0 6.44274 26.0928 0 6.04167 26.5809 0 5 
26.0928 0 3.95833 21.25 0 4.02778 21.25 0 5.97222 
20.0209 0 3.84977 18.8179 0 4.03094 18.802 0 5.97013 
20.013 0 6.11059 21.1317 10 4.96528 15 10 5 
26.5436 10 5 18.3333 10 6.66667 18.2687 10 3.05659 
24.3 10 3.14663 24.3666 10 6.87233 12.9167 10 7.08333 
12.9167 10 2.91667 27.399 10 2.54842 27.4025 10 7.45257 
21.3328 10 7.66697 21.3558 10 2.27216 15.5208 10 7.60417 
15.2371 10 2.19465 12.1667 10 5 11.4583 10 8.54167 
11.4583 10 6.875 13.125 10 8.54167 11.4583 10 3.125 
11.4583 10 1.45833 13.125 10 1.45833 28.7012 10 7.05962 
28.7012 10 8.72628 27.0346 10 8.72628 28.6995 10 1.27421 
28.6995 10 2.94088 27.0328 10 1.27421 11.0833 10 5.83333 
[...]
POINT_DATA 1886
FIELD FieldData 8
Displacement 3 1886 double
0 0 0 0 0 0 0 0 0 
0 0 0 0.00031709792813 0 3.8009765075e-05 0 0 0 
0.00031709792813 0 2.4993561301e-05 0 0 0 0 0 0 
0 0 0 0 0 0 0 0 0 
0.00031709792813 0 0.00034151205635 0.00031709792813 0 0.00034116419806 0 0 0 
0 0 0 0 0 0 0 0 0 
0 0 0 0 0 0 0 0 0 
0 0 0 0 0 0 0 0 0 
0 0 0 0 0 0 0 0 0 
0 0 0 0 0 0 0 0 0 
0 0 0 0 0 0 0 0 0 
0 0 0 0 0 0 0 0 0 
-4.5426136096e-08 0 -1.8141767237e-07 3.0804889035e-06 0 1.6515602475e-06 3.0750305472e-08 0 -4.8683390869e-08 
-3.9525840523e-07 0 -9.6021741682e-08 4.21328273e-05 0 1.3798397875e-05 0.00031709792813 1.1575004789e-05 0.00010880904012 
0.00031709792813 -2.7447794805e-05 8.9250299691e-05 0.00031709792813 5.6508857694e-07 8.7415733157e-05 0.00031709792813 1.3135769895e-06 4.0195557813e-05 
0.00031709792813 -6.6603244332e-06 8.0573548029e-05 -9.0006759039e-08 0 -4.2052107137e-07 2.1390866873e-06 0 4.6651713726e-06 
-3.345301001e-08 0 -1.1963711263e-07 -7.9256315647e-07 0 6.9873715225e-07 4.477760329e-05 0 1.3536617848e-05 
0 0 0 0 0 0 0 0 0 
0 0 0 0 0 0 0 0 0 
0 0 0 0 0 0 0 0 0 
0 0 0 -8.1238467432e-08 0 -1.7175449791e-07 2.5644326427e-05 0 -4.6374849321e-05 
-1.970717139e-08 0 -3.4658378585e-08 6.6912136931e-06 0 -9.7167134786e-06 0.00021195199367 0 -0.00017768140102 
0 0 0 0 0 0 0 0 0 
0 0 0 0 0 0 7.6097730296e-07 0 -8.0944692009e-07 
2.6279837977e-05 0 -5.4054709641e-05 1.449122391e-07 0 -7.6671432742e-08 5.4811444255e-06 0 -1.0432440344e-05 
0.00020874290428 0 -0.00018272159291 0 0 0 0 0 0 
0 0 0 0 0 0 0 0 0 
0 0 0 0 0 0 0 0 0 
0 0 0 0 0 0 0 0 0 
0 0 0 0 0 0 0 0 0 
0 0 0 0 0 0 0 0 0 
0 0 0 0 0 0 0 0 0 
0 0 0 0 0 0 0 0 0 
0 0 0 0 0 0 0 0 0 
0 0 0 0 0 0 0 0 0 
0 0 0 0 0 0 0.00011701368287 0 4.532445195e-05 
6.6325756564e-06 0 5.4383605422e-06 -4.277362228e-07 0 8.6775557498e-07 -5.0545053733e-08 0 4.3892221802e-08 
7.6779129028e-08 0 8.9121813718e-08 0.00021791884935 0 7.123268462e-05 4.3937796253e-05 0 2.0690859136e-05 
1.2049599631e-06 0 1.9026703609e-06 -2.7888740787e-07 0 4.103279607e-07 1.1709828289e-07 0 2.6855157983e-08 
2.621431798e-08 0 3.0727401196e-08 0 0 0 0 0 0 
0 0 0 0 0 0 0 0 0 
0 0 0 0 0 0 0 0 0 
0 0 0 0 0 0 0 0 0 
9.1528454181e-05 0 6.6623771181e-05 7.5269878149e-06 0 1.0559702723e-05 -3.0974425308e-07 0 9.7976127317e-07 
1.3070321459e-07 0 1.6143067965e-07 1.035480297e-07 0 1.0608946792e-07 0.00020203111539 0 7.716714007e-05 
4.5303870655e-05 0 3.8073784675e-05 1.4673807985e-06 0 2.5120087354e-06 -4.4648592923e-08 0 4.1886433176e-07 
1.7082755421e-07 0 1.1391935664e-07 2.9179241717e-08 0 3.0370232688e-08 0.00031709792813 0 0.00026841446843 
0.00031709792813 0 0.00033321969004 0.00031709792813 0 0.00017923355519 0.00031709792813 0 0.00031777252111 
0.00031709792813 0 0.00034224093484 0.00031709792813 -4.1756138585e-09 0.00034178430143 0.00031709792813 2.8127033936e-07 0.00034202469073 
0.00031709792813 7.8892999258e-08 0.00034208864718 0.00031709792813 -1.4008267089e-07 0.00034185993033 0.00031709792813 4.5214200656e-07 0.00034143428739 
0.00031709792813 0 0.00027610714603 0.00031709792813 0 0.00033200175085 0.00031709792813 0 0.00018515361006 
0.00031709792813 0 0.00031201642064 0.00031709792813 0 0.00034158521987 0 0 0 
0 0 0 0 0 0 0 0 0 
0 0 0 0 0 0 0 0 0 
0 0 0 0 0 0 0 0 0 
0 0 0 0 0 0 0 0 0 
0 0 0 0 0 0 0.00032018561407 0 0.00033069228955 
0.00029097227953 0 0.00028473654479 0.00018029888493 0 0.00018945854137 6.9227788279e-05 0 6.8091163377e-05 
1.2901912223e-05 0 1.3158108973e-05 0.00031931307528 0 0.00033997447779 0.00031243317443 0 0.00032057019985 
0.00024282638203 0 0.00023720560583 0.00011507928332 0 0.00011866718147 3.3704709665e-05 0 3.1717756096e-05 
3.1040695512e-06 0 5.1807357851e-06 0.00031895687755 0 0.00032996813704 0.00028371688263 0 0.00028562065932 
0.00017624458411 0 0.00018694439828 7.1962095503e-05 0 7.0283521924e-05 1.370580851e-05 0 1.343907937e-05 
0.00031972345785 0 0.00033980373588 0.00030993907231 0 0.00031297286232 0.00023959148706 0 0.00023268423542 
0.0001171150755 0 0.00011951654308 3.6245375319e-05 0 3.4615894586e-05 3.1684831261e-06 0 4.8199279256e-06 
0 0 0 0 0 0 0 0 0 
0 0 0 0 0 0 0 0 0 
0 0 0 0 0 0 0 0 0 
0 0 0 0 0 0 0 0 0 
0 0 0 0 0 0 0 0 0 
0 0 0 0 0 0 0 0 0 
0 0 0 0 0 0 0 0 0 
0 0 0 0 0 0 0 0 0 
0 0 0 0 0 0 0 0 0 
0 0 0 0 0 0 0 0 0 
0 0 0 0 0 0 0 0 0 
0 0 0 0 0 0 0 0 0 
0 0 0 0 0 0 0 0 0 
0 0 0 0 0 0 0 0 0 
0 0 0 0 0 0 0 0 0 
-1.5376679165e-07 -1.2672686612e-07 1.8394238346e-08 3.2669665414e-08 5.4833173507e-10 -4.897160025e-08 -5.2635310905e-07 -9.3789548822e-07 1.4998178958e-07 
-8.2791781779e-07 1.9955187753e-06 4.2407143585e-07 -6.3362716455e-08 -6.2685323091e-08 -8.4200360435e-08 6.3732973382e-06 -7.7584531441e-07 -1.7859607286e-06 
-3.0246605359e-07 -2.8757049844e-07 -1.1201067062e-07 3.5543878536e-09 -3.0706049496e-08 -3.1382944816e-08 -2.295894124e-07 1.8928289446e-07 7.1361270101e-08 
1.252091129e-06 -5.9401756711e-09 -1.9254172599e-06 7.9451315155e-05 -9.0033411508e-06 2.2746793464e-06 7.4218225096e-05 1.782494019e-07 2.4728857841e-05 
4.32024076e-08 2.1763210489e-10 -1.4595465694e-08 3.3652212984e-08 3.5045097721e-08 -6.4199726312e-08 3.5601815097e-08 -1.1170616654e-08 -1.6520509636e-08 
8.4914466312e-05 4.4789080485e-06 -1.6443825151e-06 -3.5561362668e-07 2.3196980935e-06 -2.0445224353e-06 8.6403347172e-05 -4.4892785908e-06 1.426970486e-05 
-6.9428777872e-08 -1.0004747153e-07 -1.8241740677e-07 -1.6060065535e-08 -2.5269543922e-08 -4.2355237958e-08 -9.1124473487e-09 -3.3354747407e-08 -2.5692922567e-08 
-6.4499639166e-08 2.867821445e-07 -1.4709289336e-06 -2.6993591214e-07 -6.8230541987e-08 -4.5919473932e-07 -2.0255612544e-07 -4.6556863757e-08 -1.3071008157e-07 
-5.7856574513e-07 -3.7386728092e-07 1.1439504009e-08 -9.4906064358e-08 2.1656436171e-07 -2.3138299927e-07 1.6138763564e-07 -3.663956276e-07 -7.9747674657e-07 
-1.4135573308e-07 -7.3456370944e-09 -2.7240015909e-08 -5.898297721e-07 4.5489477889e-07 2.4822007332e-07 0.00011882779605 1.0317324086e-06 5.0495249121e-06 
8.2944157378e-05 -2.9470221665e-05 3.1976006715e-05 1.1278598718e-05 -1.9023783974e-07 3.5289742393e-07 1.512722081e-06 -6.2873627794e-08 7.2419985111e-07 
1.7280024722e-09 -2.0771559293e-08 -1.4409217166e-08 1.6026443047e-08 -1.5140375709e-08 -1.003572181e-08 2.3418968117e-08 -1.2463082439e-08 -4.4395136229e-08 
-2.6428748694e-08 -5.5115955249e-08 -5.57182947e-08 -7.6917898712e-09 -4.8657663948e-08 -3.3387513776e-08 -4.6457431601e-09 -4.4290599678e-08 -1.0117212039e-07 
-3.3614475668e-07 5.5099999171e-08 -6.127616735e-08 1.4043813638e-07 -4.662540509e-08 -4.8355112694e-07 -3.8155949089e-07 -1.7654010855e-07 3.1060148294e-08 
-2.5534583332e-07 -1.5887838735e-07 -1.1183502631e-07 -9.6946850952e-08 1.7065987864e-07 9.8242357678e-08 -9.8600211999e-08 -7.7054390626e-08 -8.1257776363e-08 
-1.6128912693e-07 0 1.3523494494e-08 -5.4359675963e-08 0 2.1102163499e-08 -1.2572414361e-07 0 1.9278144662e-07 
-2.4779165556e-08 0 -4.2053441887e-08 3.4344796984e-08 0 1.5765216286e-07 6.2063688114e-08 0 7.8205189111e-08 
1.703108186e-07 0 -7.6310318346e-08 -3.5957621408e-08 0 5.9231452e-08 -5.7673235505e-08 0 -1.7626243643e-08 
1.259015518e-08 0 5.790523179e-08 6.5734326255e-08 0 -1.7769859624e-08 1.0507125153e-08 0 8.4652432475e-08 
-1.5345407375e-08 0 3.5226275947e-09 -1.7156268198e-08 0 2.3407196931e-08 -3.5757780763e-08 0 1.1548964986e-09 
3.2677034397e-06 0 -1.0183285487e-05 7.4293771302e-05 0 1.2434456566e-05 -6.9677803306e-07 0 3.5097010343e-07 
-4.5522295333e-08 0 -4.979562461e-08 2.3326508398e-08 0 -1.5247783976e-08 -7.3555304482e-09 0 -1.3761046712e-08 
-6.7305803003e-08 0 4.5687183349e-07 -4.1570055032e-07 0 -7.3290930493e-06 7.8674117944e-08 0 1.8386455271e-07 
-8.094125657e-08 0 1.5662642802e-07 -1.0486127323e-08 0 2.6476152176e-08 -9.6686183499e-09 0 4.7878446439e-08 
-4.6693078612e-08 0 4.54310645e-08 -4.0777026011e-08 0 1.0525204887e-07 8.0856733916e-07 0 1.6828132328e-06 
-2.7801906017e-07 0 -8.8805164789e-08 -7.1946366323e-08 0 1.1396130042e-08 -2.5125451396e-07 0 -1.1168617971e-07 
-1.6639653999e-08 0 -9.8637342455e-09 -2.7846622672e-08 0 -5.8160893029e-09 -6.7146604439e-08 0 -5.1902751884e-10 
-4.8480889671e-08 0 -4.345588508e-08 -9.6408991568e-08 0 2.8087429153e-08 -8.5345914175e-08 0 7.5192181517e-08 
-1.0738443851e-07 0 -1.5395353423e-08 -1.6420820903e-07 0 5.0557681099e-09 -1.5679427574e-07 0 -1.1248428114e-07 
-1.4984719518e-07 0 -2.7564884819e-08 -1.265013036e-07 0 -8.7582462701e-08 -1.2444617175e-07 0 1.2148385382e-07 
-9.9908528587e-08 0 6.764324543e-08 -4.8753760893e-08 0 4.7895605111e-08 -1.4424220756e-07 0 -5.7231181914e-08 
-1.3165422188e-07 0 2.5360432023e-07 1.1489919778e-07 0 1.3700382692e-07 9.2541534986e-08 0 2.5425666652e-07 
3.3787589619e-07 0 4.9825307098e-08 -5.4693355463e-09 0 8.3132963617e-08 -7.6879736257e-08 0 -7.4552203874e-09 
4.5916050919e-08 0 -2.2803620629e-07 1.2993532232e-08 0 3.5307315334e-08 4.1504616411e-08 0 6.6353709656e-08 
-1.2887246684e-08 0 1.0336624248e-08 -3.8901997373e-08 0 1.1402065991e-08 -1.3176532133e-08 0 4.0122154429e-08 
-2.165592439e-06 0 1.5413001948e-06 7.4380574218e-05 0 9.9362466145e-06 4.0581383524e-06 0 -1.2046690516e-05 
-4.5099909484e-08 0 -3.2139106434e-08 -1.6721075141e-07 0 -1.1832987196e-07 -6.3876120629e-08 0 -1.9103046905e-08 
-5.908490706e-07 0 -1.951470552e-07 9.4102249747e-07 0 2.1906503342e-06 -1.5769011535e-07 0 5.4921711287e-08 
-2.8772862278e-07 0 -4.9269405433e-08 -8.5685758981e-07 0 -7.2841053312e-06 1.8585911942e-07 0 1.1353249226e-06 
3.2659242781e-07 0 1.1386071617e-08 -2.3005597691e-08 0 1.5403420092e-07 -3.7758412857e-08 0 4.9330163827e-10 
-3.9749779881e-08 0 -8.2406728428e-09 -7.1252737959e-08 0 2.3330458219e-08 -1.1110123764e-07 0 -2.9670840842e-08 
1.6251893055e-09 0 4.6953825088e-08 -4.4302880902e-09 0 4.055240601e-08 -3.0042778315e-08 0 7.5462173936e-08 
9.0685369155e-09 0 1.1749215111e-07 -3.9548314111e-08 0 9.0066898166e-08 -7.4120426549e-08 0 6.621078967e-08 
-1.1996260498e-07 0 2.7567296841e-08 -7.7061323153e-08 0 -4.2172046489e-08 -1.5143827829e-07 0 -2.7861586234e-08 
-8.1493765718e-08 0 3.8082416333e-08 2.2537449824e-08 0 1.1405389147e-08 -3.6531523254e-08 0 1.1177571116e-07 
0 0 0 0 0 0 0 0 0 
0 0 0 0 0 0 0 0 0 
0 0 0 0 0 0 0 0 0 
0 0 0 0 0 0 0 0 0 
0 0 0 0 0 0 0 0 0 
0 0 0 0 0 0 0 0 0 
0 0 0 0 0 0 0 0 0 
0 0 0 0 0 0 0 0 0 
0 0 0 0 0 0 0 0 0 
0 0 0 0 0 0 0 0 0 
0 0 0 0 0 0 0 0 0 
0 0 0 0 0 0 0 0 0 
0 0 0 0 0 0 0 0 0 
0 0 0 0 0 0 0 0 0 
0 0 0 0 0 0 0 0 0 
9.9545264086e-07 -1.6578113312e-07 -1.6093337893e-07 1.4592712179e-07 6.8370764731e-08 -4.996654083e-08 1.3799613962e-07 4.7653828013e-08 6.4877134729e-08 
8.7282293271e-07 -3.1347067155e-08 -6.4696326314e-07 1.8404565912e-06 9.3534826988e-07 -1.129714628e-06 3.803265062e-07 6.3331740562e-07 -5.6573159242e-07 
1.3640871637e-06 -7.0408019094e-07 -3.9575591357e-06 8.4778641898e-07 -4.5145975831e-07 4.4289558803e-07 1.4214718367e-07 2.3603983954e-08 4.1449034974e-08 
1.203309803e-07 8.0230608573e-08 2.1486622644e-07 6.7358890412e-08 3.0562851925e-08 -3.067109354e-08 5.0744137229e-08 2.5628705406e-08 -3.410052755e-08 
3.6188341018e-08 2.6811759759e-08 -1.1658722888e-08 1.1482616915e-07 3.6933209012e-08 -1.6170378023e-08 5.0551708478e-07 1.4819339553e-07 -3.32865736e-07 
0.0002873116032 0.00011655696239 -7.2559578197e-05 0.00011910840058 -4.5370266471e-05 -0.00011063250028 0.00029890287511 6.0725985963e-05 -0.00016419281132 
0.00029100017146 -0.00011949815707 -8.4562707203e-05 0.00030211716683 -6.9129181632e-05 -0.00016662277038 0.00012188340268 4.0946456066e-05 -0.00011147261465 
2.5042638724e-05 7.9899818541e-06 -1.2946410051e-05 3.9748897759e-06 -9.6126558781e-07 -1.9835483803e-06 4.5085132874e-07 3.3634815917e-07 -2.770709973e-07 
1.2351752607e-06 5.4575773454e-07 -3.6169884925e-07 4.232826881e-08 1.6405158573e-08 -1.9363251604e-08 4.2732142536e-08 2.9270449598e-09 -1.3225459439e-08 
1.8013254632e-07 3.385728302e-08 2.994212179e-08 1.4814871408e-07 4.6423864235e-08 4.5584341924e-08 0.00023516164501 -4.1745832991e-05 -0.0001129917782 
0.00027543275267 2.2318227581e-05 -0.00016047788855 3.1692680508e-06 -3.2690730669e-07 -2.4319794012e-06 1.6880034422e-06 3.6353433787e-07 -1.2084776509e-06 
1.1477680293e-06 -2.9550074534e-07 -1.0261531055e-06 2.6527040906e-05 -9.9994076919e-06 -1.489187036e-05 2.8419995904e-07 1.1085216944e-08 -1.5479798594e-07 
4.9612090366e-07 -7.5993968403e-08 -3.1573829314e-07 9.1228954971e-07 -9.3487819271e-08 -2.9460016461e-07 5.0811323888e-07 5.8783679669e-08 -1.5242192942e-09 
4.1631552187e-07 1.2858938695e-08 -2.2227279359e-09 5.2012719853e-07 1.3207169543e-07 -2.3206825823e-07 4.3257617772e-07 -4.9527334143e-08 9.6837022595e-09 
8.8761552091e-07 -1.1234892942e-07 -3.4362643889e-07 1.6052379831e-06 2.312764551e-08 -1.0570087685e-06 1.5273816342e-06 2.9453619597e-07 -6.2504654345e-07 
0 0 0 0 0 0 0 0 0 
0 0 0 0 0 0 0 0 0 
0 0 0 0 0 0 0 0 0 
0 0 0 0 0 0 0 0 0 
0 0 0 0 0 0 0 0 0 
0 0 0 0 0 0 0 0 0 
0 0 0 0 0 0 0 0 0 
0 0 0 0 0 0 0 0 0 
0 0 0 0 0 0 0 0 0 
0 0 0 0 0 0 0 0 0 
0 0 0 0 0 0 0 0 0 
0 0 0 0 0 0 0 0 0 
0 0 0 0 0 0 0 0 0 
0 0 0 0 0 0 0 0 0 
0 0 0 0 0 0 0 0 0 
-3.0378485303e-07 0 -1.190956549e-07 1.4386174425e-08 0 2.2319611675e-08 1.5644792046e-07 0 4.4302827096e-08 
2.7105296123e-08 0 1.8142195621e-08 9.7599109314e-08 0 -1.1975470784e-08 6.6573121629e-07 0 3.7896762824e-07 
6.8410303402e-08 0 1.4176085379e-07 2.073589645e-08 0 1.6435194659e-08 1.9914820018e-09 0 -1.9339633658e-09 
-3.4294833108e-07 0 1.0776904049e-06 9.2194577232e-08 0 2.0784423508e-08 5.1948292755e-08 0 1.2804663703e-08 
2.2443765239e-07 0 4.5100759696e-07 -1.975335149e-08 0 1.9544411474e-08 4.0253906932e-08 0 6.3061189493e-08 
1.110294869e-09 0 1.3499573565e-09 -1.5253603777e-06 0 3.4026206727e-06 4.4802338692e-09 0 -1.7904880198e-09 
7.5600458619e-07 0 1.9947199928e-07 -2.9760934957e-06 0 -2.1527985878e-06 6.2932374058e-05 0 -9.1663599097e-07 
2.0494393327e-05 0 3.8077161588e-06 6.6774546761e-08 0 -7.3394962049e-09 4.2847120444e-08 0 -1.0125688675e-07 
4.4912842533e-08 0 2.331621333e-09 8.5107198547e-09 0 1.2931918441e-08 7.6084634184e-09 0 3.6050331522e-09 
3.1910728002e-08 0 4.0623811924e-08 1.1977901791e-09 0 -2.4386484214e-09 2.4188242759e-10 0 -1.294446953e-09 
-5.1583742606e-10 0 -6.9747606628e-10 -2.9713587389e-08 0 -2.0043910892e-07 9.1622396092e-07 0 -3.2246963566e-06 
7.0673529877e-08 0 -1.8699101881e-08 -1.828013301e-07 0 1.3128584823e-06 2.639796235e-09 0 -1.3560872822e-09 
1.5248417994e-09 0 -2.0489317955e-09 3.5136246893e-09 0 -2.0853066685e-09 1.047561002e-08 0 4.6938068444e-09 
-5.7953534073e-09 0 2.4224654908e-09 1.1435801569e-08 0 1.7113466535e-08 9.0955541725e-09 0 5.6303394014e-08 
2.9373884161e-08 0 -1.6639223617e-09 2.5598625973e-08 0 -2.5705510373e-09 3.1189744312e-08 0 -3.8919236741e-08 
7.1460941974e-09 0 5.8703108095e-09 1.617797191e-08 0 5.5782754399e-09 4.0159605573e-08 0 1.6923382563e-08 
1.937998099e-08 0 3.0101410982e-09 7.3935620715e-08 0 6.5470041958e-09 -6.2298773722e-10 0 3.4088725754e-10 
-2.1440219842e-10 0 1.0797100956e-09 1.1617102194e-08 0 9.3279351074e-09 1.6468397458e-09 0 2.1989202781e-10 
9.6386547944e-06 0 5.2554438189e-06 -8.5889439389e-07 0 -6.3283060269e-07 -3.3343940029e-08 0 -4.1304189803e-07 
-2.2535390139e-07 0 3.4913381354e-07 -2.1956679362e-07 0 6.9245360252e-07 -4.2545118707e-07 0 -1.2458288291e-06 
-1.7889478116e-07 0 3.8798363289e-07 -5.2127242706e-08 0 1.2218941003e-07 4.5198591484e-07 0 3.5377712687e-07 
-2.4221821478e-07 0 6.6315033021e-07 1.1820197297e-07 0 2.4597225922e-07 1.4729140021e-08 0 8.1503600563e-08 
6.3960984419e-08 0 4.8409237953e-08 5.0208639894e-08 0 9.756202951e-08 3.0070531008e-08 0 3.3311086247e-08 
1.560077112e-09 0 -1.2204207696e-07 2.6898024335e-07 0 1.1588697605e-07 3.0864558805e-07 0 -6.7445791374e-07 
-6.8413567737e-08 0 -2.5291453578e-08 5.9296695376e-07 0 7.5956533106e-07 -2.7351276263e-07 0 5.9397891963e-08 
-2.1519569162e-07 0 3.2164687519e-07 -1.4035393644e-07 0 1.3464071638e-07 2.3290385865e-08 0 2.460744228e-08 
3.1609808308e-08 0 6.4614396571e-08 5.5576252497e-08 0 6.3069517343e-08 8.592525441e-09 0 8.8425639751e-09 
2.606754891e-08 0 3.871432666e-08 1.74691537e-08 0 1.9265482304e-08 8.5239727748e-09 0 7.1019887842e-09 
5.6099602842e-09 0 5.198142304e-09 7.688341511e-08 0 3.3515267272e-08 1.1516936484e-07 0 1.0755565426e-07 
8.749946814e-08 0 2.8725357331e-08 1.1463768913e-07 0 2.6535047391e-08 3.239067179e-07 0 1.2825784359e-07 
1.9702567843e-07 0 1.8853311182e-07 9.9788577586e-08 0 8.803108366e-08 2.6591564887e-07 0 1.1567308296e-07 
8.2884685571e-09 0 9.7620752786e-09 6.1850221749e-07 0 3.4428559073e-07 6.7136844642e-08 0 9.6649653039e-08 
3.9468357423e-09 0 1.3916624199e-08 3.9023804386e-08 0 7.3870643654e-08 -5.9889119133e-08 0 -1.03349602e-07 
5.4580004855e-08 0 -1.05205203e-08 -6.6803485332e-10 0 -9.7044201947e-10 1.6225837582e-08 0 1.9618265538e-08 
5.1388187153e-08 0 2.8847592784e-07 2.0019915177e-08 0 2.5266089805e-08 1.0545958839e-06 0 3.00229197e-06 
9.9013989341e-08 0 2.6312690399e-08 1.4449944717e-07 0 -6.2370403485e-08 6.7951890199e-05 0 -1.5226955566e-06 
-1.310853123e-06 0 -1.8222792442e-06 1.8984811394e-05 0 1.1776514953e-05 2.7529118124e-08 0 -2.3041990639e-07 
3.0744414478e-08 0 -4.4384344988e-08 6.3283519675e-08 0 5.4727862239e-09 5.7186185155e-09 0 3.775481447e-09 
8.5652954204e-09 0 1.0900778206e-08 2.9976797274e-08 0 4.4066916711e-08 -3.4964394002e-10 0 -1.0376646854e-09 
1.9880047461e-10 0 -2.280075015e-09 -2.4627542457e-09 0 -3.366611786e-10 -3.3385212964e-07 0 -1.8257400283e-06 
-2.2338508117e-07 0 -4.8787722311e-07 1.6425162435e-08 0 -4.2433054285e-08 1.3743453151e-07 0 -6.1517318998e-08 
1.7789990486e-09 0 -1.5657312496e-09 4.4808304109e-09 0 1.4932491938e-09 2.8590885887e-09 0 2.3860300105e-09 
1.2566983293e-08 0 1.3974426923e-08 5.9456569601e-08 0 1.2230157517e-09 4.6747590246e-08 0 1.1548289079e-08 
9.6952306213e-08 0 -2.0129498296e-08 4.5910221524e-08 0 3.2497866064e-08 2.1026036194e-08 0 3.1311116686e-08 
8.3371815318e-08 0 5.4976475575e-08 8.966234709e-09 0 9.0140044032e-09 1.6431820852e-09 0 6.3867655198e-09 
4.3459154276e-08 0 3.9550810059e-08 -1.251123761e-09 0 5.0878323335e-09 -3.4140921339e-09 0 2.4621996551e-09 
1.1209939566e-08 0 1.8796737466e-08 -1.9318000971e-10 0 4.0111271864e-09 3.1573613599e-06 0 -4.6063420866e-06 
1.3017124651e-05 0 5.4036504853e-06 4.0622926629e-07 0 -1.1765269391e-06 -2.8289931833e-07 0 4.9293297585e-07 
-4.7020730185e-07 0 -2.8242108619e-08 2.3561904243e-07 0 -3.5561563089e-08 9.7150058421e-09 0 2.258359994e-07 
-2.3885456833e-07 0 5.099011979e-07 2.6328457787e-07 0 3.6691764279e-07 5.863959164e-08 0 6.91067868e-08 
4.401578329e-08 0 1.2247998396e-07 4.2389910064e-08 0 1.4193458346e-07 2.8181556734e-08 0 4.1008040309e-08 
6.8165348262e-08 0 7.4721924899e-08 1.6604529105e-07 0 2.1387478456e-07 2.7998165926e-07 0 1.5668327926e-07 
1.2090670424e-07 0 1.8284992489e-07 4.0610311816e-08 0 5.6568444049e-08 5.217817106e-08 0 9.0534096874e-08 
2.279812146e-08 0 4.0700776436e-08 3.6038870316e-08 0 4.1713720792e-08 1.2924669563e-07 0 9.4512557951e-08 
2.8153042328e-07 0 1.7999376615e-07 5.9824060828e-07 0 1.0964219474e-06 1.3682743101e-07 0 6.7834529599e-08 
5.0807068008e-08 0 -6.4416780443e-07 1.2098843376e-07 0 -3.0772814094e-07 1.5804521539e-07 0 -8.7224397632e-08 
2.0800701577e-08 0 3.4337375574e-08 7.21125233e-09 0 1.378815517e-08 0 0 0 
0 0 0 0 0 0 0 0 0 
0 0 0 0 0 0 0 0 0 
0 0 0 0 0 0 0 0 0 
0 0 0 0 0 0 0 0 0 
0 0 0 0 0 0 0 0 0 
0 0 0 0 0 0 0 0 0 
0 0 0 0 0 0 0 0 0 
0 0 0 0 0 0 0 0 0 
0 0 0 0 0 0 0 0 0 
0 0 0 0 0 0 0 0 0 
0 0 0 0 0 0 0 0 0 
0 0 0 0 0 0 0 0 0 
0 0 0 0 0 0 0 0 0 
0 0 0 0 0 0 0 0 0 
0 0 0 0 0 0 0 0 0 
0 0 0 0 0 0 0 0 0 
0 0 0 0 0 0 0 0 0 
0 0 0 0 0 0 0 0 0 
0 0 0 0 0 0 0 0 0 
0 0 0 0 0 0 0 0 0 
0 0 0 0 0 0 0 0 0 
0 0 0 0 0 0 0 0 0 
0 0 0 0 0 0 0 0 0 
0 0 0 0 0 0 0 0 0 
0 0 0 0 0 0 0 0 0 
0 0 0 0 0 0 0 0 0 
0 0 0 0 0 0 0 0 0 
0 0 0 0 0 0 0 0 0 
0 0 0 0 0 0 0 0 0 
0 0 0 0 0 0 0 0 0 
3.7111457549e-07 -2.9674793911e-08 1.1120287587e-07 1.1428247307e-05 -4.3714277458e-06 1.0720376422e-05 1.0939918578e-07 8.3582641864e-10 9.6386696805e-08 