# vtk DataFile Version 4.1
vtk output
ASCII
DATASET UNSTRUCTURED_GRID
POINTS 3545 float
7.18e-13 50 10 0 100 10 0 100 0 
7.18e-13 50 0 200 100 10 200 0 10 
50 -1.2e-14 10 200 100 0 200 0 0 
50 -1.2e-14 0 0 60 10 0 70 10 
0 80 10 0 90 10 0 55 10 
0 65 10 0 75 10 0 85 10 
0 95 10 0 100 5 0 60 0 
0 70 0 0 80 0 0 90 0 
0 55 0 0 65 0 0 75 0 
0 85 0 0 95 0 0 50 5 
10 100 10 20 100 10 30 100 10 
40 100 10 50 100 10 60 100 10 
70 100 10 80 100 10 90 100 10 
100 100 10 110 100 10 120 100 10 
130 100 10 140 100 10 150 100 10 
160 100 10 170 100 10 180 100 10 
190 100 10 5 100 10 15 100 10 
25 100 10 35 100 10 45 100 10 
55 100 10 65 100 10 75 100 10 
85 100 10 95 100 10 105 100 10 
115 100 10 125 100 10 135 100 10 
145 100 10 155 100 10 165 100 10 
175 100 10 185 100 10 195 100 10 
200 10 10 200 20 10 200 30 10 
200 40 10 200 50 10 200 60 10 
200 70 10 200 80 10 200 90 10 
200 5 10 200 15 10 200 25 10 
200 35 10 200 45 10 200 55 10 
200 65 10 200 75 10 200 85 10 
200 95 10 60 0 10 70 0 10 
80 0 10 90 0 10 100 0 10 
110 0 10 120 0 10 130 0 10 
140 0 10 150 0 10 160 0 10 
170 0 10 180 0 10 190 0 10 
55 0 10 65 0 10 75 0 10 
85 0 10 95 0 10 105 0 10 
115 0 10 125 0 10 135 0 10 
145 0 10 155 0 10 165 0 10 
175 0 10 185 0 10 195 0 10 
49.0393 9.75452 10 46.194 19.1342 10 41.5735 27.7785 10 
35.3553 35.3553 10 27.7785 41.5735 10 19.1342 46.194 10 
9.75452 49.0393 10 49.7592 4.90086 10 47.847 14.5142 10 
44.0961 23.5698 10 38.6505 31.7197 10 31.7197 38.6505 10 
23.5698 44.0961 10 14.5142 47.847 10 4.90086 49.7592 10 
10 100 0 20 100 0 30 100 0 
40 100 0 50 100 0 60 100 0 
70 100 0 80 100 0 90 100 0 
100 100 0 110 100 0 120 100 0 
130 100 0 140 100 0 150 100 0 
160 100 0 170 100 0 180 100 0 
190 100 0 5 100 0 15 100 0 
25 100 0 35 100 0 45 100 0 
55 100 0 65 100 0 75 100 0 
85 100 0 95 100 0 105 100 0 
115 100 0 125 100 0 135 100 0 
145 100 0 155 100 0 165 100 0 
175 100 0 185 100 0 195 100 0 
200 100 5 200 10 0 200 20 0 
200 30 0 200 40 0 200 50 0 
200 60 0 200 70 0 200 80 0 
200 90 0 200 5 0 200 15 0 
200 25 0 200 35 0 200 45 0 
200 55 0 200 65 0 200 75 0 
200 85 0 200 95 0 60 0 0 
70 0 0 80 0 0 90 0 0 
100 0 0 110 0 0 120 0 0 
130 0 0 140 0 0 150 0 0 
160 0 0 170 0 0 180 0 0 
190 0 0 55 0 0 65 0 0 
75 0 0 85 0 0 95 0 0 
105 0 0 115 0 0 125 0 0 
135 0 0 145 0 0 155 0 0 
165 0 0 175 0 0 185 0 0 
195 0 0 49.0393 9.75452 0 46.194 19.1342 0 
41.5735 27.7785 0 35.3553 35.3553 0 27.7785 41.5735 0 
19.1342 46.194 0 9.75452 49.0393 0 49.7592 4.90086 0 
47.847 14.5142 0 44.0961 23.5698 0 38.6505 31.7197 0 
31.7197 38.6505 0 23.5698 44.0961 0 14.5142 47.847 0 
4.90086 49.7592 0 50 -1.225e-14 5 200 0 5 
0 95 5 0 55 5 0 65 5 
0 75 5 0 85 5 0 52.5 7.5 
0 52.5 2.5 0 57.5 7.5 0 97.5 2.5 
0 97.5 7.5 0 92.5 7.5 0 92.5 2.5 
0 57.5 2.5 0 67.5 7.5 0 62.5 7.5 
0 60 5 0 62.5 2.5 0 77.5 7.5 
0 72.5 7.5 0 70 5 0 67.5 2.5 
0 72.5 2.5 0 87.5 7.5 0 82.5 7.5 
0 80 5 0 77.5 2.5 0 82.5 2.5 
0 90 5 0 87.5 2.5 86.5007 50 10 
144.301 49.2374 10 55.6644 66.0252 10 115.75 66.6252 10 
114.795 33.475 10 169.167 30.8333 10 169.167 69.1667 10 
27.9007 72.4238 10 72.1258 27.0212 10 78.603 74.0537 10 
139.641 25.5189 10 139.698 74.9477 10 94.8332 22.6195 10 
57.423 42.8454 10 178.626 50 10 99.1787 79.0705 10 
124.951 50.3402 10 105.858 49.9855 10 44.7787 81.4609 10 
36.3608 57.3288 10 156.218 17.9037 10 156.108 83.1076 10 
181.576 83.4881 10 183.768 16.5687 10 69.7256 55.8018 10 
62.9725 82.6685 10 123.496 82.961 10 123.948 17.4483 10 
161.813 53.6198 10 153.04 35.0433 10 15.9253 84.0824 10 
96.9839 62.8898 10 184.522 34.9102 10 184.649 65.2763 10 
152.524 66.6773 10 15.104 63.621 10 96.6898 38.2782 10 
109.559 15.5562 10 81.3464 15.5409 10 64.7793 14.374 10 
73.8401 41.582 10 57.5113 28.498 10 130.755 62.8214 10 
128.621 33.7869 10 86.9167 86.5816 10 31.438 86.2371 10 
112.059 85.8438 10 169.12 13.5789 10 169.747 86.7403 10 
44.1559 45.2582 10 143.931 12.7368 10 145.649 86.3725 10 
84.269 30.6613 10 66.9849 68.4161 10 81.1833 59.6594 10 
39.1224 69.325 10 72.6274 87.7777 10 25.4042 57.4207 10 
169.159 40.7853 10 141.792 61.4077 10 141.457 39.153 10 
95.1703 10.8703 10 104.284 29.5377 10 52.8439 55.9648 10 
189.185 44.3283 10 54.3956 89.2059 10 88.4262 71.9522 10 
10.1461 74.1976 10 135.268 89.8813 10 134.584 8.82114 10 
115.229 55.3578 10 105.335 70.4671 10 114.87 44.5409 10 
49.6234 36.0168 10 171.484 58.5025 10 190.117 25.5687 10 
190.032 74.0834 10 54.2312 76.3466 10 96.4349 88.0697 10 
65.2829 35.7208 10 154.717 45.724 10 189.452 10.548 10 
189.834 89.2301 10 134.911 53.9377 10 189.369 56.1143 10 
72.3841 10.39 10 106.614 39.6429 10 114.677 76.1787 10 
124.405 72.0983 10 116.884 9.70735 10 114.46 22.6686 10 
149.603 26.2255 10 129.846 25.8542 10 159.484 28.1279 10 
96.774 52.971 10 106.235 59.7813 10 152.333 56.7981 10 
178.773 72.492 10 178.444 27.2944 10 39.7631 89.632 10 
24.4432 91.3785 10 36.8216 45.6975 10 160.601 73.7323 10 
153.074 7.28536 10 67.166 46.1259 10 153.817 92.4479 10 
64.2851 91.8742 10 148.423 76.5393 10 85.1773 40.0962 10 
177.44 9.32794 10 177.842 90.6449 10 133.225 42.4809 10 
161.775 63.0767 10 30.7842 64.2249 10 35.2611 78.5908 10 
60.8329 58.8886 10 9.39452 90.6055 10 118.867 90.6507 10 
46.0315 61.9531 10 55.5806 18.5519 10 177.53 41.1906 10 
77.2589 50.4311 10 161.245 37.8189 10 17.0806 54.3229 10 
19.4255 73.6708 10 69.9588 77.3313 10 132.397 80.0601 10 
165.649 21.999 10 171.181 77.8157 10 8.38827 57.6443 10 
104.227 8.64393 10 79.2733 25.0029 10 86.7124 8.06884 10 
57.5582 8.29152 10 64.367 23.2913 10 105.097 92.542 10 
89.0387 58.2339 10 125.091 7.0823 10 72.3793 19.2701 10 
23.7237 66.2722 10 122.668 60.8101 10 192.765 34.9615 10 
192.913 65.0677 10 163.303 92.3556 10 76.8524 33.8263 10 
161.682 7.75359 10 6.72769 65.0926 10 180.033 59.0029 10 
7.90607 82.4603 10 49.7908 26.329 10 121.771 38.4439 10 
25.2701 81.4403 10 135.544 18.5943 10 103.241 20.3085 10 
107.048 78.8937 10 92.1463 30.9327 10 75.1537 64.722 10 
121.518 27.8362 10 48.3331 70.0852 10 93.1568 45.458 10 
80.9156 91.9904 10 89.1373 16.3006 10 134.735 70.4476 10 
64.9443 6.61111 10 61.8267 74.4691 10 80.0317 82.9522 10 
176.596 64.9548 10 192.385 17.8863 10 192.385 82.1137 10 
27.3448 49.3147 10 170.086 48.4162 10 174.091 19.7463 10 
95.7142 71.3724 10 125.885 92.9209 10 44.5295 52.6562 10 
143.893 69.7285 10 89.3293 79.1503 10 144.669 32.738 10 
164.188 82.7503 10 136.562 32.467 10 148.455 41.379 10 
100.462 44.6325 10 59.4655 50.3745 10 103.686 85.0368 10 
33.2246 93.4062 10 42.0474 38.0801 10 57.4601 35.7702 10 
87.4186 24.1708 10 16.1065 93.5369 10 46.7789 92.8841 10 
144.987 20.1958 10 144.822 5.51954 10 79.0516 7.19462 10 
89.9889 92.6385 10 82.5479 67.1377 10 144.962 93.9877 10 
128.393 56.5541 10 162.976 45.5947 10 139.826 81.7255 10 
51.3402 47.186 10 184.023 5.90405 10 184.067 94.1354 10 
112.578 93.4367 10 175.698 34.4354 10 194.479 5.52096 10 
194.479 94.479 10 89.2715 65.2769 10 4.19413 53.8221 10 
4.19413 58.8221 10 9.07139 53.3418 10 4.69726 90.3027 10 
4.69726 95.3027 10 9.69726 95.3027 10 197.24 97.2395 10 
197.24 92.2395 10 192.24 97.2395 10 197.24 2.76048 10 
192.24 2.76048 10 197.24 7.76048 10 58.7791 4.14576 10 
53.7791 4.14576 10 53.2987 9.02302 10 3.36385 62.5463 10 
3.36385 67.5463 10 7.55798 61.3684 10 5.07307 72.0988 10 
5.07307 77.0988 10 8.43692 69.6451 10 3.95304 81.2302 10 
3.95304 86.2302 10 9.0261 78.329 10 8.65029 86.5329 10 
67.4721 3.30555 10 62.4721 3.30555 10 61.2512 7.45131 10 
79.5258 3.59731 10 74.5258 3.59731 10 68.6642 8.50054 10 
71.192 5.19498 10 75.7178 8.79229 10 88.3562 4.03442 10 
83.3562 4.03442 10 82.882 7.63173 10 97.5852 5.43517 10 
92.5852 5.43517 10 90.9414 9.46959 10 107.114 4.32196 10 
102.114 4.32196 10 99.6988 9.75713 10 118.442 4.85367 10 
113.442 4.85367 10 110.555 9.17564 10 127.546 3.54115 10 
122.546 3.54115 10 120.987 8.39483 10 137.292 4.41057 10 
132.292 4.41057 10 129.837 7.95172 10 147.411 2.75977 10 
142.411 2.75977 10 139.703 7.17034 10 156.537 3.64268 10 
151.537 3.64268 10 148.948 6.40245 10 165.841 3.87679 10 
160.841 3.87679 10 157.378 7.51947 10 178.72 4.66397 10 
173.72 4.66397 10 173.28 11.4534 10 169.56 6.78946 10 
165.401 10.6663 10 187.011 2.95203 10 182.011 2.95203 10 
180.731 7.61599 10 189.251 5.71251 10 52.3099 14.1532 10 
50.8873 18.8431 10 56.5694 13.4217 10 47.9924 22.7316 10 
45.6821 27.0538 10 52.6857 22.4405 10 41.8104 32.9293 10 
38.7013 36.7177 10 49.7071 31.1729 10 45.5984 31.8977 10 
45.8354 37.0485 10 36.0885 40.5264 10 32.3001 43.6355 10 
39.4345 41.8888 10 27.5617 45.4441 10 23.2395 47.7543 10 
32.0832 47.5061 10 18.1074 50.2584 10 13.4175 51.6811 10 
22.2127 51.8188 10 12.7344 55.9836 10 196.193 18.9431 10 
196.193 13.9431 10 190.919 14.2171 10 194.726 10.274 10 
191.965 8.03449 10 195.059 27.7844 10 195.059 22.7844 10 
191.251 21.7275 10 196.382 37.4807 10 196.382 32.4807 10 
191.441 30.2651 10 194.593 47.1642 10 194.593 42.1642 10 
190.975 39.6449 10 194.685 58.0571 10 194.685 53.0571 10 
189.277 50.2213 10 196.457 67.5339 10 196.457 62.5339 10 
191.141 60.591 10 195.016 77.0417 10 195.016 72.0417 10 
191.473 69.5756 10 196.193 86.0569 10 196.193 81.0569 10 
191.209 78.0986 10 191.11 85.6719 10 194.917 89.6151 10 
192.157 91.8546 10 13.0532 96.7684 10 18.0532 96.7684 10 
12.7505 92.0712 10 22.2216 95.6893 10 27.2216 95.6893 10 
20.2749 92.4577 10 31.6123 96.7031 10 36.6123 96.7031 10 
28.8339 92.3924 10 43.3895 96.4421 10 48.3895 96.4421 10 
36.4939 91.5191 10 39.8815 94.816 10 43.271 91.2581 10 
52.1978 94.603 10 57.1978 94.603 10 50.5873 91.045 10 
62.1425 95.9371 10 67.1425 95.9371 10 59.3404 90.5401 10 
75.4578 95.9952 10 80.4578 95.9952 10 68.4562 89.826 10 
71.3137 93.8888 10 76.7715 89.884 10 85.4578 95.9952 10 
89.9944 96.3192 10 94.9944 96.3192 10 85.4522 92.3144 10 
102.549 96.271 10 107.549 96.271 10 100.766 90.3058 10 
98.2174 94.0348 10 93.2119 90.3541 10 111.289 96.7184 10 
116.289 96.7184 10 108.838 92.9893 10 122.942 96.4604 10 
127.942 96.4604 10 122.376 91.7858 10 119.433 95.3253 10 
115.722 92.0437 10 132.634 94.9406 10 137.634 94.9406 10 
[...]
POINT_DATA 3545
FIELD FieldData 24
Displacement 3 3545 double
0 -3.15148e-05 -2.1655e-05 0 -5.41969e-05 -3.35865e-07 0 -5.34493e-05 0 
0 -2.50962e-05 0 8.46509e-05 -2.51147e-06 -7.08354e-07 9.10694e-05 0 -1.01769e-06 
7.24691e-05 0 1.38015e-06 8.46554e-05 -2.50717e-06 0 9.10349e-05 0 0 
7.21585e-05 0 0 0 -4.47606e-05 -1.57936e-05 0 -5.11084e-05 -9.68005e-06 
0 -5.27972e-05 -4.26575e-06 0 -5.34848e-05 -1.71229e-06 0 -3.90129e-05 -1.85976e-05 
0 -4.85973e-05 -1.28014e-05 0 -5.22755e-05 -6.67134e-06 0 -5.32017e-05 -2.77997e-06 
0 -5.38426e-05 -1.0036e-06 0 -5.36187e-05 -1.43128e-07 0 -4.19348e-05 0 
0 -4.89191e-05 0 0 -5.12788e-05 0 0 -5.25744e-05 0 
0 -3.54112e-05 0 0 -4.62098e-05 0 0 -5.03286e-05 0 
0 -5.20381e-05 0 0 -5.30781e-05 0 0 -2.72548e-05 -1.19717e-05 
1.54833e-06 -5.19071e-05 -4.8797e-07 4.18182e-06 -4.56949e-05 -9.02496e-07 8.71592e-06 -3.69262e-05 -2.13529e-06 
1.69296e-05 -2.79307e-05 -3.87128e-06 2.58212e-05 -2.11711e-05 -3.08885e-06 3.31463e-05 -1.62834e-05 -2.35486e-06 
3.93863e-05 -1.2535e-05 -1.85816e-06 4.47509e-05 -9.9056e-06 -1.5234e-06 4.95812e-05 -7.99019e-06 -1.40118e-06 
5.41266e-05 -6.60596e-06 -1.31806e-06 5.83669e-05 -5.67554e-06 -1.22086e-06 6.22697e-05 -5.0849e-06 -1.12072e-06 
6.58422e-05 -4.72775e-06 -1.02556e-06 6.91139e-05 -4.50942e-06 -9.38135e-07 7.21104e-05 -4.34448e-06 -8.62683e-07 
7.4876e-05 -4.16706e-06 -7.98299e-07 7.74544e-05 -3.91491e-06 -7.51775e-07 7.99035e-05 -3.55745e-06 -7.20978e-07 
8.22785e-05 -3.07299e-06 -7.10691e-07 7.01927e-07 -5.3575e-05 -3.78923e-07 2.66824e-06 -4.91963e-05 -6.74089e-07 
6.15205e-06 -4.15591e-05 -1.31708e-06 1.24925e-05 -3.23131e-05 -3.36738e-06 2.14913e-05 -2.4256e-05 -3.62549e-06 
2.96317e-05 -1.85659e-05 -2.6759e-06 3.63625e-05 -1.42752e-05 -2.1034e-06 4.21413e-05 -1.11263e-05 -1.65607e-06 
4.72114e-05 -8.87403e-06 -1.44292e-06 5.18894e-05 -7.23454e-06 -1.36155e-06 5.62875e-05 -6.09039e-06 -1.2703e-06 
6.03592e-05 -5.34405e-06 -1.17068e-06 6.4095e-05 -4.88414e-06 -1.07216e-06 6.75128e-05 -4.6063e-06 -9.80304e-07 
7.06435e-05 -4.42321e-06 -8.98699e-07 7.35191e-05 -4.26009e-06 -8.28934e-07 7.6185e-05 -4.05323e-06 -7.72493e-07 
7.86916e-05 -3.75173e-06 -7.33854e-07 8.10947e-05 -3.32989e-06 -7.13445e-07 8.34622e-05 -2.79557e-06 -7.09598e-07 
9.09408e-05 2.88141e-07 -1.00891e-06 9.05682e-05 5.21332e-07 -9.849e-07 8.99803e-05 6.48968e-07 -9.46753e-07 
8.92291e-05 6.37289e-07 -9.00262e-07 8.83735e-05 4.55287e-07 -8.48111e-07 8.7481e-05 9.87192e-08 -7.9595e-07 
8.66264e-05 -4.24e-07 -7.52044e-07 8.58629e-05 -1.0698e-06 -7.21545e-07 8.52182e-05 -1.78772e-06 -7.1059e-07 
9.10362e-05 1.47177e-07 -1.01534e-06 9.07836e-05 4.13797e-07 -9.99101e-07 9.02976e-05 6.00115e-07 -9.67415e-07 
8.96219e-05 6.62706e-07 -9.24993e-07 8.88094e-05 5.67104e-07 -8.74894e-07 8.7927e-05 2.97496e-07 -8.21652e-07 
8.70454e-05 -1.43917e-07 -7.72148e-07 8.62314e-05 -7.3426e-07 -7.34689e-07 8.55262e-05 -1.42436e-06 -7.13751e-07 
8.49312e-05 -2.15237e-06 -7.09533e-07 7.31467e-05 0 7.81423e-07 7.33093e-05 0 3.64445e-07 
7.3484e-05 0 6.42308e-08 7.38623e-05 0 -1.52813e-07 7.44758e-05 0 -3.16369e-07 
7.53477e-05 0 -4.42221e-07 7.6451e-05 0 -5.41594e-07 7.77741e-05 0 -6.19668e-07 
7.92936e-05 0 -6.84413e-07 8.09884e-05 0 -7.40297e-07 8.28328e-05 0 -7.90831e-07 
8.47995e-05 0 -8.40375e-07 8.68568e-05 0 -8.91754e-07 8.8965e-05 0 -9.49758e-07 
7.29193e-05 0 1.05728e-06 7.32364e-05 0 5.54023e-07 7.33726e-05 0 1.99881e-07 
7.36416e-05 0 -5.30244e-08 7.41373e-05 0 -2.41249e-07 7.48818e-05 0 -3.84472e-07 
7.587e-05 0 -4.95485e-07 7.70864e-05 0 -5.82859e-07 7.85104e-05 0 -6.5411e-07 
8.01208e-05 0 -7.13432e-07 8.18934e-05 0 -7.65959e-07 8.38026e-05 0 -8.15541e-07 
8.58191e-05 0 -8.65456e-07 8.7907e-05 0 -9.19887e-07 9.00214e-05 0 -9.82929e-07 
7.16436e-05 -4.51348e-06 1.25635e-06 6.92911e-05 -9.15481e-06 9.9469e-07 6.54083e-05 -1.4162e-05 5.38945e-07 
6.02243e-05 -1.96572e-05 -2.79414e-08 5.37757e-05 -2.56649e-05 -6.59367e-07 4.62784e-05 -3.18132e-05 -1.45535e-06 
3.00634e-05 -3.2642e-05 -9.82754e-06 7.2239e-05 -2.24255e-06 1.34146e-06 7.06317e-05 -6.80174e-06 1.14697e-06 
6.75241e-05 -1.15994e-05 7.87696e-07 6.29641e-05 -1.68354e-05 2.77736e-07 5.71043e-05 -2.25969e-05 -3.48866e-07 
5.02182e-05 -2.87611e-05 -9.11724e-07 3.99241e-05 -3.29304e-05 -4.1423e-06 1.59664e-05 -3.14193e-05 -1.72601e-05 
1.43063e-06 -5.12157e-05 0 3.926e-06 -4.51233e-05 0 8.18432e-06 -3.67864e-05 0 
1.68932e-05 -2.8709e-05 0 2.61467e-05 -2.15953e-05 0 3.33847e-05 -1.65504e-05 0 
3.95638e-05 -1.26986e-05 0 4.48192e-05 -9.99878e-06 0 4.96195e-05 -8.06186e-06 0 
5.41669e-05 -6.6696e-06 0 5.84088e-05 -5.72576e-06 0 6.23106e-05 -5.12117e-06 0 
6.58814e-05 -4.75052e-06 0 6.91483e-05 -4.51986e-06 0 7.21409e-05 -4.34545e-06 0 
7.49e-05 -4.15983e-06 0 7.74727e-05 -3.90262e-06 0 7.9914e-05 -3.54426e-06 0 
8.22848e-05 -3.06402e-06 0 6.44145e-07 -5.28642e-05 0 2.49955e-06 -4.85782e-05 0 
5.76701e-06 -4.11063e-05 0 1.20141e-05 -3.27609e-05 0 2.17812e-05 -2.48861e-05 0 
2.99208e-05 -1.88919e-05 0 3.65742e-05 -1.4496e-05 0 4.22589e-05 -1.12507e-05 0 
4.72546e-05 -8.9528e-06 0 5.19274e-05 -7.30331e-06 0 5.63292e-05 -6.14748e-06 0 
6.04013e-05 -5.38773e-06 0 6.41359e-05 -4.91363e-06 0 6.75504e-05 -4.62265e-06 0 
7.06759e-05 -4.42933e-06 0 7.35466e-05 -4.25689e-06 0 7.62062e-05 -4.04258e-06 0 
7.8706e-05 -3.7383e-06 0 8.11026e-05 -3.31748e-06 0 8.34673e-05 -2.78971e-06 0 
8.46533e-05 -2.50918e-06 -3.52931e-07 9.09084e-05 2.94695e-07 0 9.05394e-05 5.3333e-07 0 
8.99586e-05 6.66156e-07 0 8.92148e-05 6.57331e-07 0 8.83679e-05 4.76192e-07 0 
8.74843e-05 1.17946e-07 0 8.66363e-05 -4.07968e-07 0 8.58757e-05 -1.05932e-06 0 
8.52276e-05 -1.78138e-06 0 9.10021e-05 1.50689e-07 0 9.07519e-05 4.23492e-07 0 
9.02722e-05 6.15205e-07 0 8.96031e-05 6.8208e-07 0 8.8799e-05 5.88167e-07 0 
8.7926e-05 3.18604e-07 0 8.70529e-05 -1.25661e-07 0 8.62432e-05 -7.20804e-07 0 
8.55381e-05 -1.4164e-06 0 8.49371e-05 -2.14737e-06 0 7.2909e-05 0 0 
7.31323e-05 0 0 7.33563e-05 0 0 7.37685e-05 0 0 
7.44026e-05 0 0 7.52933e-05 0 0 7.64064e-05 0 0 
7.77394e-05 0 0 7.92633e-05 0 0 8.09624e-05 0 0 
8.28083e-05 0 0 8.47743e-05 0 0 8.68294e-05 0 0 
8.89345e-05 0 0 7.26419e-05 0 0 7.30321e-05 0 0 
7.32223e-05 0 0 7.35325e-05 0 0 7.40554e-05 0 0 
7.48187e-05 0 0 7.58208e-05 0 0 7.7047e-05 0 0 
7.84784e-05 0 0 8.0093e-05 0 0 8.18684e-05 0 0 
8.3778e-05 0 0 8.57933e-05 0 0 8.78783e-05 0 0 
8.99884e-05 0 0 7.13769e-05 -4.63741e-06 0 6.90838e-05 -9.37335e-06 0 
6.53793e-05 -1.44524e-05 0 6.02773e-05 -1.9909e-05 0 5.39699e-05 -2.59027e-05 0 
4.68273e-05 -3.22486e-05 0 3.55567e-05 -3.31046e-05 0 7.19393e-05 -2.31247e-06 0 
7.03989e-05 -6.9762e-06 0 6.73951e-05 -1.18753e-05 0 6.29589e-05 -1.71304e-05 0 
5.72337e-05 -2.28296e-05 0 5.04973e-05 -2.89972e-05 0 4.26988e-05 -3.42265e-05 0 
2.1403e-05 -2.86963e-05 0 7.22018e-05 0 6.85302e-07 9.10424e-05 0 -5.08748e-07 
0 -5.32863e-05 -4.91061e-07 0 -3.65619e-05 -1.0746e-05 0 -4.67706e-05 -7.11029e-06 
0 -5.06689e-05 -3.36695e-06 0 -5.23114e-05 -1.44539e-06 0 -3.39049e-05 -1.62512e-05 
0 -3.09309e-05 -5.69147e-06 0 -4.09479e-05 -1.39204e-05 0 -5.3342e-05 -1.61859e-07 
0 -5.37351e-05 -4.89112e-07 0 -5.33237e-05 -1.00446e-06 0 -5.2897e-05 -3.28248e-07 
0 -3.95178e-05 -5.25799e-06 0 -4.89032e-05 -8.85603e-06 0 -4.57624e-05 -1.16046e-05 
0 -4.28254e-05 -9.19355e-06 0 -4.45073e-05 -3.99119e-06 0 -5.16951e-05 -4.00104e-06 
0 -5.07281e-05 -6.30032e-06 0 -4.92661e-05 -4.84048e-06 0 -4.78766e-05 -2.91704e-06 
0 -4.97415e-05 -2.03934e-06 0 -5.28872e-05 -1.65379e-06 0 -5.23968e-05 -2.63509e-06 
0 -5.15843e-05 -2.22391e-06 0 -5.09148e-05 -1.43014e-06 0 -5.17533e-05 -9.10258e-07 
0 -5.28243e-05 -8.67653e-07 0 -5.23888e-05 -5.77711e-07 6.24901e-05 -2.48446e-06 -6.41204e-07 
7.58404e-05 -8.30139e-07 -7.86459e-07 4.58608e-05 -1.23534e-05 -1.00077e-06 6.5663e-05 -1.97287e-06 -8.78291e-07 
7.248e-05 -2.03538e-07 -6.1316e-07 8.32568e-05 -3.24332e-07 -8.26433e-07 7.93719e-05 -1.77878e-06 -8.01986e-07 
2.96017e-05 -2.97686e-05 -1.94209e-06 6.82679e-05 -2.2916e-06 -4.96913e-08 5.13513e-05 -6.56512e-06 -1.06998e-06 
7.78857e-05 -1.43799e-07 -7.11704e-07 7.10573e-05 -2.33478e-06 -8.70539e-07 7.17841e-05 -2.91021e-07 -3.46423e-07 
5.87579e-05 -8.02491e-06 -3.17657e-07 8.35417e-05 -6.83744e-07 -8.24712e-07 5.75678e-05 -4.14786e-06 -1.05803e-06 
7.12974e-05 -7.99138e-07 -7.61424e-07 6.7039e-05 -1.1029e-06 -7.12218e-07 3.31403e-05 -1.99682e-05 -1.54948e-06 
4.34005e-05 -2.13022e-05 -9.07729e-07 8.1571e-05 -1.39927e-07 -7.76221e-07 7.47263e-05 -2.88084e-06 -8.29117e-07 
8.12116e-05 -2.31955e-06 -7.57912e-07 8.72695e-05 1.21491e-08 -9.01656e-07 5.56144e-05 -6.13804e-06 -7.14455e-07 
4.1552e-05 -1.20006e-05 -1.37324e-06 6.51417e-05 -3.19913e-06 -9.77661e-07 7.61181e-05 1.93792e-08 -6.00264e-07 
7.92989e-05 -1.0637e-06 -8.08435e-07 7.9488e-05 -4.21244e-07 -7.7844e-07 1.09363e-05 -4.60205e-05 -2.84748e-06 
6.11567e-05 -2.65449e-06 -8.53786e-07 8.62427e-05 -1.25854e-07 -8.70383e-07 8.34483e-05 -1.11679e-06 -7.91129e-07 
7.54929e-05 -1.7608e-06 -8.23445e-07 2.52396e-05 -3.82656e-05 -4.8053e-06 6.82891e-05 -8.26106e-07 -5.33123e-07 
7.44456e-05 2.50756e-08 -4.711e-07 7.20416e-05 -6.13296e-07 -5.45959e-08 7.15224e-05 -2.00466e-06 4.08864e-07 
6.2888e-05 -3.48465e-06 -3.99713e-07 6.61187e-05 -5.82895e-06 2.13983e-07 7.04555e-05 -1.49778e-06 -8.35074e-07 
7.48698e-05 -2.1785e-07 -6.8724e-07 5.098e-05 -6.68518e-06 -1.22445e-06 2.18768e-05 -3.13721e-05 -2.42516e-06 
6.08481e-05 -3.92582e-06 -1.0653e-06 8.43408e-05 -9.36362e-08 -8.33518e-07 7.80393e-05 -2.92889e-06 -7.81846e-07 
5.41118e-05 -1.46319e-05 -4.21242e-07 7.96126e-05 -4.82593e-08 -7.13373e-07 7.15425e-05 -3.2231e-06 -8.76676e-07 
6.85424e-05 -1.20782e-06 -3.05764e-07 4.90804e-05 -8.666e-06 -1.01127e-06 5.74981e-05 -4.25333e-06 -8.02125e-07 
3.72623e-05 -2.16197e-05 -1.13813e-06 4.43419e-05 -9.89506e-06 -1.34479e-06 3.88163e-05 -2.86506e-05 -1.17228e-06 
8.2341e-05 -5.59248e-07 -8.20844e-07 7.34881e-05 -1.42499e-06 -8.21334e-07 7.66196e-05 -4.51083e-07 -7.52483e-07 
7.35909e-05 -7.72257e-08 -2.71489e-07 7.15855e-05 -2.29628e-07 -5.06877e-07 5.0161e-05 -1.19936e-05 -7.37598e-07 
8.64581e-05 -1.26324e-07 -8.55662e-07 3.4406e-05 -1.63859e-05 -1.97657e-06 5.56617e-05 -4.59546e-06 -9.98544e-07 
1.07368e-05 -4.76158e-05 -5.24227e-06 6.81411e-05 -3.6343e-06 -9.44152e-07 7.82657e-05 -3.1371e-10 -6.5605e-07 
6.79808e-05 -1.17695e-06 -7.82205e-07 6.1689e-05 -2.7655e-06 -9.35284e-07 7.02749e-05 -5.97481e-07 -6.93353e-07 
6.11352e-05 -1.02925e-05 -5.00335e-09 8.10227e-05 -1.18273e-06 -8.09349e-07 8.81405e-05 1.49697e-07 -9.16236e-07 
8.39525e-05 -1.32937e-06 -7.60042e-07 4.02178e-05 -1.44401e-05 -1.29942e-06 5.45508e-05 -5.50657e-06 -1.18956e-06 
6.38587e-05 -4.60263e-06 -1.60047e-07 7.86219e-05 -7.5043e-07 -7.94762e-07 8.86981e-05 8.86506e-08 -9.404e-07 
8.28374e-05 -2.31928e-06 -7.30072e-07 7.297e-05 -9.90483e-07 -7.92632e-07 8.54008e-05 -4.83655e-07 -8.15632e-07 
7.25352e-05 -8.32162e-07 2.24702e-07 6.97459e-05 -5.32087e-07 -6.13307e-07 6.34202e-05 -2.83664e-06 -9.64505e-07 
6.71172e-05 -2.22677e-06 -9.01317e-07 7.57869e-05 3.88197e-08 -5.24074e-07 7.41835e-05 -8.07613e-09 -5.48141e-07 
7.96768e-05 -2.22859e-07 -7.55539e-07 7.61428e-05 -8.02311e-08 -6.63527e-07 8.14683e-05 -2.94772e-07 -7.93787e-07 
6.4047e-05 -1.79672e-06 -7.21395e-07 6.46127e-05 -1.78277e-06 -8.17239e-07 7.66866e-05 -1.21428e-06 -8.08151e-07 
8.14001e-05 -1.73081e-06 -7.83808e-07 8.55091e-05 -1.59064e-07 -8.62818e-07 2.49296e-05 -2.47806e-05 -2.49507e-06 
1.24894e-05 -4.04726e-05 -2.08365e-06 5.19557e-05 -1.93016e-05 -5.46828e-07 7.67734e-05 -2.17198e-06 -8.14608e-07 
8.14452e-05 -4.15629e-08 -7.57261e-07 5.93895e-05 -5.48912e-06 -4.65604e-07 7.3458e-05 -3.65043e-06 -8.39863e-07 
3.89161e-05 -1.29617e-05 -1.72606e-06 7.32729e-05 -2.4323e-06 -8.48483e-07 6.56497e-05 -1.78171e-06 -4.66728e-07 
8.61972e-05 -2.9226e-08 -8.75536e-07 7.98354e-05 -2.96293e-06 -7.51098e-07 7.44421e-05 -4.95851e-07 -7.40341e-07 
7.82071e-05 -1.52409e-06 -8.10571e-07 3.65389e-05 -2.6052e-05 -1.1682e-06 3.00042e-05 -2.57698e-05 -1.61595e-06 
5.13094e-05 -9.25919e-06 -7.9712e-07 4.4248e-06 -5.13596e-05 -1.69586e-06 6.26124e-05 -4.11518e-06 -1.0617e-06 
4.43207e-05 -1.6358e-05 -9.35564e-07 6.99386e-05 -4.7411e-06 6.48775e-07 8.41498e-05 -4.43696e-07 -8.38823e-07 
6.00231e-05 -3.86001e-06 -6.11477e-07 8.09213e-05 -5.13459e-07 -8.0244e-07 3.66287e-05 -3.38817e-05 -2.64911e-06 
2.12312e-05 -3.84507e-05 -3.55699e-06 4.66744e-05 -9.10541e-06 -1.18016e-06 6.82931e-05 -2.79114e-06 -9.18506e-07 
8.31857e-05 -1.95817e-07 -8.1677e-07 7.90779e-05 -2.27392e-06 -7.89975e-07 2.05535e-05 -4.01676e-05 -1.13411e-05 
7.45191e-05 1.52015e-08 -3.86803e-07 6.9631e-05 -1.28781e-06 -1.41061e-07 7.33437e-05 -1.72931e-07 -1.08321e-07 
7.24464e-05 -2.02854e-06 8.32888e-07 6.88702e-05 -3.24158e-06 2.12518e-07 5.72233e-05 -5.16519e-06 -1.18335e-06 
6.03171e-05 -2.9924e-06 -7.82373e-07 7.69623e-05 2.32356e-08 -5.87646e-07 7.06707e-05 -1.56595e-06 9.84866e-08 
3.12307e-05 -3.1287e-05 -1.98841e-06 6.87224e-05 -1.4172e-06 -8.27476e-07 8.8046e-05 2.09558e-07 -8.98596e-07 
8.5395e-05 -6.70876e-07 -7.8245e-07 7.60352e-05 -3.49389e-06 -7.95133e-07 6.64508e-05 -2.24238e-06 -2.64566e-07 
8.30564e-05 -5.36493e-08 -7.98873e-07 1.17994e-05 -4.63026e-05 -1.01997e-05 8.29696e-05 -9.96252e-07 -8.07955e-07 
5.51134e-06 -5.09519e-05 -3.31747e-06 6.64514e-05 -8.64809e-06 4.83865e-07 7.28332e-05 -3.25015e-07 -6.80524e-07 
2.06144e-05 -3.59426e-05 -2.82206e-06 7.78152e-05 -4.27358e-08 -6.76264e-07 7.31121e-05 -6.62221e-08 -4.28937e-07 
6.03662e-05 -3.49603e-06 -1.02169e-06 6.9539e-05 -6.95709e-07 -4.02823e-07 5.35787e-05 -6.05101e-06 -9.05775e-07 
7.45123e-05 -7.50216e-08 -6.22772e-07 4.08277e-05 -1.64262e-05 -1.12682e-06 6.55049e-05 -1.4881e-06 -6.03975e-07 
4.70131e-05 -8.56115e-06 -1.35052e-06 7.24228e-05 -3.11465e-07 -2.0789e-07 7.03031e-05 -2.01286e-06 -8.65866e-07 
7.28716e-05 -9.32936e-07 5.19693e-07 4.43807e-05 -1.12087e-05 -1.18164e-06 4.90656e-05 -7.48725e-06 -1.21035e-06 
8.1578e-05 -1.38319e-06 -7.99057e-07 8.90486e-05 2.03425e-07 -9.45986e-07 8.39088e-05 -1.6975e-06 -7.37558e-07 
4.62231e-05 -2.63481e-05 -9.05333e-07 8.17662e-05 -7.92051e-07 -8.17162e-07 8.50671e-05 -1.25264e-07 -8.52922e-07 
5.83364e-05 -3.64218e-06 -9.70181e-07 6.48278e-05 -4.11538e-06 -1.02416e-06 4.9362e-05 -1.56219e-05 -6.87078e-07 
7.28743e-05 -1.95462e-06 -8.44334e-07 5.38957e-05 -5.34658e-06 -1.10346e-06 7.80544e-05 -3.12229e-07 -7.4739e-07 
7.68949e-05 -2.75175e-06 -8.02789e-07 7.65268e-05 -2.42152e-07 -7.16233e-07 7.77933e-05 -5.70808e-07 -7.75806e-07 
6.72771e-05 -1e-06 -6.31584e-07 5.52459e-05 -8.44532e-06 -5.62078e-07 5.79466e-05 -4.41324e-06 -1.10752e-06 
1.69754e-05 -3.19633e-05 -2.7582e-06 5.86539e-05 -1.49206e-05 -9.22522e-08 6.25383e-05 -6.94236e-06 -6.4365e-08 
7.06682e-05 -6.55187e-07 -2.60784e-07 6.58179e-06 -4.78195e-05 -1.45155e-06 2.75452e-05 -2.09596e-05 -2.63986e-06 
7.93213e-05 -1.14569e-07 -7.2722e-07 8.00298e-05 -1.75776e-08 -7.13622e-07 7.31199e-05 -3.26932e-07 6.80463e-08 
5.09266e-05 -6.98819e-06 -1.29257e-06 5.52074e-05 -4.92439e-06 -9.35336e-07 7.08333e-05 -3.88714e-06 -8.91997e-07 
7.09606e-05 -1.12186e-06 -8.01477e-07 8.04714e-05 -7.47517e-07 -8.08087e-07 7.02932e-05 -2.87215e-06 -8.92668e-07 
5.47715e-05 -1.12364e-05 -4.61334e-07 8.76527e-05 1.32082e-08 -9.12535e-07 8.11669e-05 -2.95414e-06 -7.29816e-07 
6.00001e-05 -4.73088e-06 -1.13341e-06 8.43555e-05 -3.22616e-07 -8.43889e-07 8.98716e-05 9.37751e-08 -9.77268e-07 
8.36448e-05 -2.43183e-06 -7.15913e-07 5.80578e-05 -3.71172e-06 -8.94083e-07 1.21314e-05 -3.69337e-05 -1.70681e-05 
9.71995e-06 -4.28105e-05 -1.49772e-05 2.51029e-05 -3.65126e-05 -1.08298e-05 2.21465e-06 -5.29598e-05 -1.69441e-06 
1.51332e-06 -5.3354e-05 -1.00092e-06 3.21186e-06 -5.16965e-05 -1.08002e-06 8.41485e-05 -2.47097e-06 -7.11471e-07 
8.44293e-05 -2.11319e-06 -7.13437e-07 8.29586e-05 -2.75462e-06 -7.13627e-07 9.04827e-05 6.282e-08 -9.97423e-07 
8.94285e-05 3.68458e-08 -9.63997e-07 9.04136e-05 1.75182e-07 -9.93358e-07 7.29492e-05 -9.34873e-07 8.22329e-07 
7.26979e-05 -1.37678e-06 1.09973e-06 7.21152e-05 -3.00333e-06 1.05124e-06 6.44924e-06 -4.6275e-05 -1.34336e-05 
5.27543e-06 -4.92783e-05 -1.02609e-05 1.54638e-05 -4.35621e-05 -1.10161e-05 6.05906e-06 -5.02515e-05 -7.403e-06 
4.63294e-06 -5.14001e-05 -5.28361e-06 1.14603e-05 -4.7265e-05 -7.5076e-06 2.91808e-06 -5.234e-05 -3.8624e-06 
2.27204e-06 -5.27897e-05 -2.49109e-06 7.70367e-06 -4.95058e-05 -4.2868e-06 4.9894e-06 -5.12211e-05 -2.44616e-06 
7.31805e-05 -3.91344e-07 4.45778e-07 7.31025e-05 -5.58423e-07 6.50465e-07 7.26856e-05 -1.38532e-06 6.70051e-07 
7.33853e-05 -1.55455e-07 6.95187e-08 7.32734e-05 -2.39784e-07 2.0783e-07 7.27141e-05 -9.05179e-07 3.65161e-07 
7.31091e-05 -4.50979e-07 3.03858e-07 7.28478e-05 -5.38217e-07 1.44969e-07 7.36901e-05 -6.97479e-08 -1.28052e-07 
7.3486e-05 -1.19767e-07 -2.21967e-08 7.32157e-05 -2.44782e-07 -2.42356e-08 7.41723e-05 -1.55264e-08 -2.87907e-07 
7.38469e-05 -5.02056e-08 -2.08008e-07 7.3446e-05 -1.25368e-07 -1.92967e-07 7.49997e-05 1.48397e-08 -4.13649e-07 
7.45641e-05 3.17452e-09 -3.50552e-07 7.40452e-05 -1.8506e-08 -3.30343e-07 7.61914e-05 2.18834e-08 -5.30547e-07 
7.56217e-05 2.35807e-08 -4.82551e-07 7.51047e-05 3.371e-08 -4.59296e-07 7.73973e-05 1.0076e-08 -6.03378e-07 
7.67328e-05 1.48982e-08 -5.63932e-07 7.63666e-05 3.19202e-08 -5.56804e-07 7.88205e-05 -2.41155e-09 -6.69288e-07 
7.80584e-05 5.6514e-09 -6.37164e-07 7.75915e-05 1.38343e-08 -6.22807e-07 8.05194e-05 -1.08555e-08 -7.26667e-07 
7.96717e-05 -6.24801e-09 -6.99123e-07 7.91347e-05 -1.15825e-08 -6.85079e-07 8.21555e-05 -2.26061e-08 -7.73637e-07 
8.12386e-05 -1.87852e-08 -7.48636e-07 8.07249e-05 -2.93151e-08 -7.35823e-07 8.39445e-05 -2.54415e-08 -8.19234e-07 
8.29689e-05 -2.60591e-08 -7.94883e-07 8.22387e-05 -4.88629e-08 -7.78355e-07 8.65583e-05 -9.61493e-09 -8.8402e-07 
8.55237e-05 -2.19759e-08 -8.58036e-07 8.52709e-05 -6.15254e-08 -8.54404e-07 8.46398e-05 -4.1623e-08 -8.37086e-07 
8.37021e-05 -7.6028e-08 -8.1664e-07 8.83204e-05 1.67075e-08 -9.31082e-07 8.72656e-05 1.83253e-09 -9.0243e-07 
8.69272e-05 -5.38008e-09 -8.93538e-07 8.87618e-05 4.92827e-08 -9.43355e-07 7.10303e-05 -4.80928e-06 9.42356e-07 
6.9592e-05 -6.59121e-06 8.12527e-07 7.14269e-05 -3.3885e-06 7.55584e-07 6.79905e-05 -8.92963e-06 7.26385e-07 
6.58747e-05 -1.1132e-05 5.32679e-07 6.83585e-05 -6.5893e-06 5.87881e-07 6.22224e-05 -1.45253e-05 1.97008e-07 
5.92822e-05 -1.70988e-05 -5.08003e-08 6.39393e-05 -9.50732e-06 2.35503e-07 6.31321e-05 -1.18971e-05 2.55009e-07 
5.99117e-05 -1.24706e-05 -3.24323e-08 5.59249e-05 -1.92811e-05 -3.17459e-07 5.25977e-05 -2.22928e-05 -5.74974e-07 
5.54464e-05 -1.7094e-05 -3.27505e-07 4.9873e-05 -2.59065e-05 -7.99793e-07 4.62637e-05 -2.91287e-05 -1.03324e-06 
4.92335e-05 -2.2794e-05 -7.17121e-07 4.13292e-05 -3.27784e-05 -2.04346e-06 3.47692e-05 -3.48565e-05 -5.46347e-06 
4.194e-05 -3.01863e-05 -1.3305e-06 2.99829e-05 -3.70296e-05 -6.15846e-06 8.98121e-05 3.39931e-07 -9.65725e-07 
9.00199e-05 2.68897e-07 -9.76822e-07 8.88892e-05 1.40509e-07 -9.44303e-07 8.98245e-05 1.74325e-07 -9.73546e-07 
8.92942e-05 1.00211e-07 -9.58398e-07 8.90647e-05 3.5422e-07 -9.3286e-07 8.93708e-05 3.32023e-07 -9.48458e-07 
8.86124e-05 1.87652e-07 -9.30849e-07 8.86388e-05 3.96837e-07 -9.00183e-07 8.90242e-05 4.25877e-07 -9.22178e-07 
8.81104e-05 1.82452e-07 -9.08238e-07 8.74121e-05 1.13241e-07 -8.53653e-07 8.78538e-05 2.18213e-07 -8.75488e-07 
8.72682e-05 5.74339e-08 -8.76225e-07 8.64365e-05 -2.37497e-07 -8.08024e-07 8.68965e-05 -5.2526e-08 -8.28834e-07 
8.5934e-05 -2.82699e-07 -8.35398e-07 8.60039e-05 -5.56121e-07 -7.67444e-07 8.64403e-05 -3.04584e-07 -7.88151e-07 
8.53904e-05 -5.69241e-07 -7.99809e-07 8.48987e-05 -1.21248e-06 -7.41906e-07 8.52914e-05 -9.0882e-07 -7.55587e-07 
8.46664e-05 -9.92654e-07 -7.70568e-07 8.45524e-05 -1.73805e-06 -7.2191e-07 8.48851e-05 -1.39817e-06 -7.29382e-07 
8.39186e-05 -1.50723e-06 -7.48741e-07 8.33655e-05 -2.00671e-06 -7.33558e-07 8.40295e-05 -2.06266e-06 -7.20241e-07 