# vtk DataFile Version 4.1
vtk output
ASCII
DATASET UNSTRUCTURED_GRID
POINTS 1420 float
0 0 0 0 -1000 -3.33067e-13 16000 0 0 
16000 -1000 -3.33067e-13 16000 -5.55112e-13 2500 16000 -1000 2500 
11000 -5.55112e-13 2500 11000 -1000 2500 10000 -3.33067e-13 1500 
10000 -1000 1500 9000 -3.33067e-13 1500 9000 -1000 1500 
8000 -5.55112e-13 2500 8000 -1000 2500 7000 -5.55112e-13 2500 
7000 -1000 2500 5000 -1.11022e-12 5000 5000 -1000 5000 
0 -1.11022e-12 5000 0 -1000 5000 0 -500 -1.66533e-13 
16000 -500 -1.66533e-13 1000 0 0 2000 0 0 
3000 0 0 4000 0 0 5000 0 0 
6000 0 0 7000 0 0 8000 0 0 
9000 0 0 10000 0 0 11000 0 0 
12000 0 0 13000 0 0 14000 0 0 
15000 0 0 500 0 0 1500 0 0 
2500 0 0 3500 0 0 4500 0 0 
5500 0 0 6500 0 0 7500 0 0 
8500 0 0 9500 0 0 10500 0 0 
11500 0 0 12500 0 0 13500 0 0 
14500 0 0 15500 0 0 1000 -1000 -3.33067e-13 
2000 -1000 -3.33067e-13 3000 -1000 -3.33067e-13 4000 -1000 -3.33067e-13 
5000 -1000 -3.33067e-13 6000 -1000 -3.33067e-13 7000 -1000 -3.33067e-13 
8000 -1000 -3.33067e-13 9000 -1000 -3.33067e-13 10000 -1000 -3.33067e-13 
11000 -1000 -3.33067e-13 12000 -1000 -3.33067e-13 13000 -1000 -3.33067e-13 
14000 -1000 -3.33067e-13 15000 -1000 -3.33067e-13 500 -1000 -3.33067e-13 
1500 -1000 -3.33067e-13 2500 -1000 -3.33067e-13 3500 -1000 -3.33067e-13 
4500 -1000 -3.33067e-13 5500 -1000 -3.33067e-13 6500 -1000 -3.33067e-13 
7500 -1000 -3.33067e-13 8500 -1000 -3.33067e-13 9500 -1000 -3.33067e-13 
10500 -1000 -3.33067e-13 11500 -1000 -3.33067e-13 12500 -1000 -3.33067e-13 
13500 -1000 -3.33067e-13 14500 -1000 -3.33067e-13 15500 -1000 -3.33067e-13 
16000 -500 2500 16000 -3.70074e-13 1666.67 16000 -1.85037e-13 833.333 
16000 -4.62593e-13 2083.33 16000 -2.77556e-13 1250 16000 -9.25186e-14 416.667 
16000 -1000 1666.67 16000 -1000 833.333 16000 -1000 2083.33 
16000 -1000 1250 16000 -1000 416.667 11000 -500 2500 
12000 -5.55112e-13 2500 13000 -5.55112e-13 2500 14000 -5.55112e-13 2500 
15000 -5.55112e-13 2500 11500 -5.55112e-13 2500 12500 -5.55112e-13 2500 
13500 -5.55112e-13 2500 14500 -5.55112e-13 2500 15500 -5.55112e-13 2500 
12000 -1000 2500 13000 -1000 2500 14000 -1000 2500 
15000 -1000 2500 11500 -1000 2500 12500 -1000 2500 
13500 -1000 2500 14500 -1000 2500 15500 -1000 2500 
10000 -500 1500 10500 -4.44089e-13 2000 10250 -3.88578e-13 1750 
10750 -4.996e-13 2250 10500 -1000 2000 10250 -1000 1750 
10750 -1000 2250 9000 -500 1500 9500 -3.33067e-13 1500 
9500 -1000 1500 8000 -500 2500 8500 -4.44089e-13 2000 
8250 -4.996e-13 2250 8750 -3.88578e-13 1750 8500 -1000 2000 
8250 -1000 2250 8750 -1000 1750 7000 -500 2500 
7500 -5.55112e-13 2500 7500 -1000 2500 5000 -500 5000 
5500 -9.71445e-13 4375 6000 -8.32667e-13 3750 6500 -6.93889e-13 3125 
5250 -1.04083e-12 4687.5 5750 -9.02056e-13 4062.5 6250 -7.63278e-13 3437.5 
6750 -6.245e-13 2812.5 5500 -1000 4375 6000 -1000 3750 
6500 -1000 3125 5250 -1000 4687.5 5750 -1000 4062.5 
6250 -1000 3437.5 6750 -1000 2812.5 0 -500 5000 
1000 -1.11022e-12 5000 2000 -1.11022e-12 5000 3000 -1.11022e-12 5000 
4000 -1.11022e-12 5000 500 -1.11022e-12 5000 1500 -1.11022e-12 5000 
2500 -1.11022e-12 5000 3500 -1.11022e-12 5000 4500 -1.11022e-12 5000 
1000 -1000 5000 2000 -1000 5000 3000 -1000 5000 
4000 -1000 5000 500 -1000 5000 1500 -1000 5000 
2500 -1000 5000 3500 -1000 5000 4500 -1000 5000 
0 -2.22045e-13 1000 0 -4.44089e-13 2000 0 -6.66134e-13 3000 
0 -8.88178e-13 4000 0 -1.11022e-13 500 0 -3.33067e-13 1500 
0 -5.55112e-13 2500 0 -7.77156e-13 3500 0 -9.99201e-13 4500 
0 -1000 1000 0 -1000 2000 0 -1000 3000 
0 -1000 4000 0 -1000 500 0 -1000 1500 
0 -1000 2500 0 -1000 3500 0 -1000 4500 
15500 -500 -1.66533e-13 1500 -500 -1.66533e-13 2500 -500 -1.66533e-13 
3500 -500 -1.66533e-13 4500 -500 -1.66533e-13 5500 -500 -1.66533e-13 
6500 -500 -1.66533e-13 7500 -500 -1.66533e-13 8500 -500 -1.66533e-13 
9500 -500 -1.66533e-13 11500 -500 -1.66533e-13 12500 -500 -1.66533e-13 
13500 -500 -1.66533e-13 14500 -500 -1.66533e-13 10500 -500 -1.66533e-13 
500 -500 -1.66533e-13 250 -250 -8.32667e-14 250 -750 -2.498e-13 
750 -250 -8.32667e-14 750 -750 -2.498e-13 15750 -750 -2.498e-13 
15750 -250 -8.32667e-14 15250 -250 -8.32667e-14 15250 -750 -2.498e-13 
1750 -250 -8.32667e-14 1250 -250 -8.32667e-14 1000 -500 -1.66533e-13 
1250 -750 -2.498e-13 2750 -250 -8.32667e-14 2250 -250 -8.32667e-14 
2000 -500 -1.66533e-13 1750 -750 -2.498e-13 2250 -750 -2.498e-13 
3750 -250 -8.32667e-14 3250 -250 -8.32667e-14 3000 -500 -1.66533e-13 
2750 -750 -2.498e-13 3250 -750 -2.498e-13 4750 -250 -8.32667e-14 
4250 -250 -8.32667e-14 4000 -500 -1.66533e-13 3750 -750 -2.498e-13 
4250 -750 -2.498e-13 5750 -250 -8.32667e-14 5250 -250 -8.32667e-14 
5000 -500 -1.66533e-13 4750 -750 -2.498e-13 5250 -750 -2.498e-13 
6750 -250 -8.32667e-14 6250 -250 -8.32667e-14 6000 -500 -1.66533e-13 
5750 -750 -2.498e-13 6250 -750 -2.498e-13 7750 -250 -8.32667e-14 
7250 -250 -8.32667e-14 7000 -500 -1.66533e-13 6750 -750 -2.498e-13 
7250 -750 -2.498e-13 8750 -250 -8.32667e-14 8250 -250 -8.32667e-14 
8000 -500 -1.66533e-13 7750 -750 -2.498e-13 8250 -750 -2.498e-13 
9750 -250 -8.32667e-14 9250 -250 -8.32667e-14 9000 -500 -1.66533e-13 
8750 -750 -2.498e-13 9250 -750 -2.498e-13 10750 -250 -8.32667e-14 
10250 -250 -8.32667e-14 10000 -500 -1.66533e-13 9750 -750 -2.498e-13 
10250 -750 -2.498e-13 11750 -250 -8.32667e-14 11250 -250 -8.32667e-14 
11000 -500 -1.66533e-13 11250 -750 -2.498e-13 10750 -750 -2.498e-13 
12750 -250 -8.32667e-14 12250 -250 -8.32667e-14 12000 -500 -1.66533e-13 
11750 -750 -2.498e-13 12250 -750 -2.498e-13 13750 -250 -8.32667e-14 
13250 -250 -8.32667e-14 13000 -500 -1.66533e-13 12750 -750 -2.498e-13 
13250 -750 -2.498e-13 14750 -250 -8.32667e-14 14250 -250 -8.32667e-14 
14000 -500 -1.66533e-13 13750 -750 -2.498e-13 14250 -750 -2.498e-13 
15000 -500 -1.66533e-13 14750 -750 -2.498e-13 16000 -500 501.701 
16000 -500 1998.3 16000 -500 1250 16000 -250 250.85 
16000 -750 250.85 16000 -250 667.517 16000 -750 667.517 
16000 -750 2249.15 16000 -250 2249.15 16000 -250 1832.48 
16000 -750 1832.48 16000 -250 1458.33 16000 -250 1041.67 
16000 -500 1624.15 16000 -500 875.85 16000 -750 1041.67 
16000 -750 1458.33 15500 -500 2500 11500 -500 2500 
12500 -500 2500 13500 -500 2500 14500 -500 2500 
15750 -250 2500 15750 -750 2500 15250 -250 2500 
15250 -750 2500 11250 -750 2500 11250 -250 2500 
11750 -250 2500 11750 -750 2500 12750 -750 2500 
12250 -750 2500 12000 -500 2500 12250 -250 2500 
13750 -750 2500 13250 -750 2500 12750 -250 2500 
13000 -500 2500 13250 -250 2500 14750 -750 2500 
14250 -750 2500 13750 -250 2500 14000 -500 2500 
14250 -250 2500 15000 -500 2500 14750 -250 2500 
10650 -500 2150 10330 -500 1830 10825 -250 2325 
10825 -750 2325 10575 -250 2075 10575 -750 2075 
10165 -750 1665 10165 -250 1665 10415 -250 1915 
10415 -750 1915 10490 -500 1990 9500 -500 1500 
9750 -250 1500 9750 -750 1500 9250 -250 1500 
9250 -750 1500 8350 -500 2150 8670 -500 1830 
8835 -250 1665 8835 -750 1665 8585 -250 1915 
8585 -750 1915 8175 -750 2325 8175 -250 2325 
8425 -250 2075 8425 -750 2075 8510 -500 1990 
7500 -500 2500 7750 -250 2500 7750 -750 2500 
7250 -250 2500 7250 -750 2500 6678.57 -500 2901.79 
5750 -500 4062.5 6250 -500 3437.5 5321.43 -500 4598.21 
6839.29 -250 2700.89 6839.29 -750 2700.89 6589.29 -250 3013.39 
6589.29 -750 3013.39 5160.71 -750 4799.11 5160.71 -250 4799.11 
5410.71 -250 4486.61 5410.71 -750 4486.61 5625 -250 4218.75 
5875 -250 3906.25 5535.71 -500 4330.36 6125 -250 3593.75 
6375 -250 3281.25 6000 -500 3750 6464.29 -500 3169.64 
5875 -750 3906.25 5625 -750 4218.75 6375 -750 3281.25 
6125 -750 3593.75 4500 -500 5000 500 -500 5000 
1500 -500 5000 2500 -500 5000 3500 -500 5000 
4750 -250 5000 4750 -750 5000 4250 -250 5000 
4250 -750 5000 250 -750 5000 250 -250 5000 
750 -250 5000 750 -750 5000 1250 -250 5000 
1750 -250 5000 1000 -500 5000 1250 -750 5000 
2250 -250 5000 2750 -250 5000 1750 -750 5000 
2000 -500 5000 2250 -750 5000 3250 -250 5000 
3750 -250 5000 2750 -750 5000 3000 -500 5000 
3250 -750 5000 4000 -500 5000 3750 -750 5000 
0 -500 4500 0 -500 3500 0 -500 2500 
0 -500 500 0 -500 1500 0 -750 250 
0 -250 250 0 -250 750 0 -750 750 
0 -250 4750 0 -750 4750 0 -250 4250 
0 -750 4250 0 -750 1750 0 -750 1250 
0 -500 1000 0 -250 1250 0 -750 2750 
0 -750 2250 0 -250 2250 0 -500 2000 
0 -250 1750 0 -750 3750 0 -750 3250 
0 -250 3250 0 -500 3000 0 -250 2750 
0 -500 4000 0 -250 3750 3804.82 -5.73407e-13 2582.4 
5510.46 -3.9908e-13 1797.29 1857.01 -4.13924e-13 1864.15 2547.62 -7.69518e-13 3465.6 
7598.14 -2.70659e-13 1218.94 11556.5 -2.87882e-13 1296.51 4890.48 -7.21221e-13 3248.09 
14805.6 -2.77556e-13 1250 3044.64 -3.08678e-13 1390.16 13374.6 -2.83646e-13 1277.43 
1214.61 -7.59917e-13 3422.36 3807.9 -8.7561e-13 3943.4 4433.91 -2.05084e-13 923.616 
6163.12 -2.66347e-13 1199.52 1320.02 -2.55702e-13 1151.58 5603.24 -6.38432e-13 2875.24 
9500 -1.66533e-13 750 8265.63 -1.53582e-13 691.67 879.525 -5.8385e-13 2629.43 
10786.3 -1.53737e-13 692.369 4665.83 -9.04816e-13 4074.93 12486.2 -1.71627e-13 772.939 
2142.72 -2.1167e-13 953.276 2902.84 -5.4109e-13 2436.85 6250.65 -4.78152e-13 2153.41 
4650.21 -5.45105e-13 2454.94 5309.02 -2.0813e-13 937.332 7821.97 -4.04559e-13 1821.97 
1771.53 -8.92451e-13 4019.24 1867.37 -6.45499e-13 2907.07 11133.7 -4.04204e-13 1820.37 
12516.6 -3.89818e-13 1755.59 6961.5 -3.55638e-13 1601.65 2970.88 -9.26969e-13 4174.7 
772.866 -9.28005e-13 4179.36 14295.5 -1.729e-13 778.671 14266.5 -3.81984e-13 1720.3 
3616.05 -1.701e-13 766.06 3329.1 -7.04926e-13 3174.71 3876.79 -3.90165e-13 1757.15 
5331.91 -8.13716e-13 3664.65 15268.1 -4.02899e-13 1814.49 15273 -1.52175e-13 685.334 
6896.67 -1.71021e-13 770.21 8900.44 -1.98056e-13 891.963 7552.09 -1.19052e-13 536.164 
10117.8 -1.97137e-13 887.825 4137.89 -7.16644e-13 3227.48 8373.49 -3.0599e-13 1378.05 
11500 -1.1719e-13 527.778 743.795 -3.65542e-13 1646.26 10623.4 -3.1116e-13 1401.34 
666.882 -1.45707e-13 656.208 11641.4 -4.38425e-13 1974.49 1500 -1.15448e-13 519.934 
15488.6 -2.7755e-13 1249.98 533.388 -7.72805e-13 3480.4 13472.5 -4.36165e-13 1964.31 
[...]
POINT_DATA 1420
FIELD FieldData 11
Displacement 3 1420 double
0 0 0 0 0 0 0 0 0 
0 0 0 0 0 0 0 0 0 
1.0644601353e-05 0 5.4594788611e-06 1.1449038086e-05 0 3.2716086604e-06 0.0005594589574 0 0.0015087726356 
0.00052886124099 0 0.0015787569541 0.0062687542237 0 0.0050665942063 0.00643755248 0 0.005000135183 
0.0064015428517 0 0.0018371311192 0.0064004623331 0 0.0018385251524 0.0064167676099 0 -5.4908037141e-05 
0.0064107782524 0 -5.2782464182e-05 0.0028592906502 0 -0.0036681489475 0.0028598351573 0 -0.00366748724 
0 0 0 0 0 0 0 0 0 
0 0 0 0 0 0 0 0 0 
0 0 0 0 0 0 0 0 0 
0 0 0 0 0 0 0 0 0 
0 0 0 0 0 0 0 0 0 
0 0 0 0 0 0 0 0 0 
0 0 0 0 0 0 0 0 0 
0 0 0 0 0 0 0 0 0 
0 0 0 0 0 0 0 0 0 
0 0 0 0 0 0 0 0 0 
0 0 0 0 0 0 0 0 0 
0 0 0 0 0 0 0 0 0 
0 0 0 0 0 0 0 0 0 
0 0 0 0 0 0 0 0 0 
0 0 0 0 0 0 0 0 0 
0 0 0 0 0 0 0 0 0 
0 0 0 0 0 0 0 0 0 
0 0 0 0 0 0 0 0 0 
0 0 0 0 0 0 0 0 0 
0 0 0 0 0 0 0 0 0 
0 0 0 0 0 0 0 0 0 
0 0 0 0 0 0 0 0 0 
0 0 0 0 0 0 0 0 0 
0 0 0 0 0 0 0 0 0 
0 0 0 0 0 0 0 0 0 
0 0 0 0 0 0 9.8355354417e-06 -5.8827212697e-07 6.265136145e-06 
8.5824825179e-06 0 4.487445829e-06 6.1907127429e-06 0 2.3179725757e-06 3.6830118757e-06 0 1.3081706409e-06 
1.6221730741e-06 0 9.186931611e-07 9.1750128833e-06 0 5.6154933428e-06 7.4648048351e-06 0 3.2758096278e-06 
4.8817009036e-06 0 1.7130689915e-06 2.60352561e-06 0 1.0557820872e-06 7.6396394205e-07 0 7.9662735023e-07 
8.589609209e-06 0 4.319454304e-06 6.2369916537e-06 0 2.344567571e-06 3.6859656996e-06 0 1.3064179065e-06 
1.6401683016e-06 0 9.216005507e-07 9.4776200768e-06 0 4.981620126e-06 7.4624768568e-06 0 3.3080425878e-06 
4.8902591384e-06 0 1.7029522138e-06 2.6077707094e-06 0 1.0527412091e-06 7.6661897076e-07 0 7.927548826e-07 
0.00050523826507 -0.00014384407197 0.0016636585111 2.0536177955e-05 0 1.8239262768e-06 2.78119312e-05 0 0.00096775189318 
1.1147118914e-05 0 1.0918053812e-05 2.5852861177e-05 0 -1.4819560538e-05 3.6175436646e-05 0 0.00094425041204 
1.1679203045e-05 0 9.6632221142e-06 0.0064448650521 1.7416539595e-05 0.0049409317773 0.0030939840361 0 0.0036510266045 
0.0031437284391 0 0.00376801515 0.0064002014717 -7.1532408951e-08 0.0018375194466 0.0073563592523 0 0.0027890198306 
0.0068756089932 0 0.0023202035744 0.0076199122316 0 0.0046344276237 0.0073655037841 0 0.0027990496774 
0.0068752599026 0 0.0023207557312 0.0076180690924 0 0.0044762855511 0.0064152801604 2.8452780133e-06 -5.5977386515e-05 
0.0064084960159 0 0.00089001164756 0.0064072679165 0 0.00088941576725 0.0028589684683 2.7773152613e-07 -0.0036676591939 
0.0036988608675 0 -0.0029884223431 0.0045625253907 0 -0.0021900614095 0.0055447763969 0 -0.0011926566787 
0.0032777471331 0 -0.0033287083629 0.0041251084445 0 -0.002619027553 0.0050460810323 0 -0.0017092981521 
0.0060087658633 0 -0.00054733229126 0.0036987448422 0 -0.0029866741077 0.0045618647914 0 -0.0021921912985 
0.0055431846074 0 -0.0011865074703 0.0032778919355 0 -0.0033283678452 0.0041255349685 0 -0.0026178780211 
0.0050415807331 0 -0.0017080493128 0.0060022954919 0 -0.00054000172767 0 0 0 
0.0030090517039 0 -0.0033586646584 0.0033712383103 0 -0.0056999288768 0.0031034187 0 -0.0060122601003 
0.002886429563 0 -0.0049911627612 0.0015269041452 0 -0.0024353929818 0.0033467245175 0 -0.004825781319 
0.0032928396117 0 -0.0060544553975 0.0029467076362 0 -0.0056484918517 0.0028679127768 0 -0.0043396354914 
0.002936823665 0 -0.0033576929136 0.0033956124489 0 -0.005701336511 0.0030927800828 0 -0.0060238040459 
0.0028760315117 0 -0.0049904937961 0.0015573416508 0 -0.0025316093015 0.0033308101413 0 -0.004822598899 
0.0032775963821 0 -0.0060620008981 0.002948715326 0 -0.0056485384444 0.0028650369833 0 -0.004340286285 
0 0 0 0 0 0 0 0 0 
0 0 0 0 0 0 0 0 0 
0 0 0 0 0 0 0 0 0 
0 0 0 0 0 0 0 0 0 
0 0 0 0 0 0 0 0 0 
0 0 0 0 0 0 0 0 0 
0 0 0 0 0 0 0 0 0 
0 0 0 0 0 0 0 0 0 
0 0 0 0 0 0 0 0 0 
0 0 0 0 0 0 0 0 0 
0 0 0 0 0 0 0 0 0 
0 0 0 0 0 0 0 0 0 
0 0 0 0 0 0 0 0 0 
0 0 0 0 0 0 0 0 0 
0 0 0 0 0 0 0 0 0 
0 0 0 0 0 0 0 0 0 
0 0 0 0 0 0 0 0 0 
0 0 0 0 0 0 0 0 0 
0 0 0 0 0 0 0 0 0 
0 0 0 0 0 0 0 0 0 
0 0 0 0 0 0 0 0 0 
0 0 0 0 0 0 0 0 0 
0 0 0 0 0 0 0 0 0 
0 0 0 0 0 0 0 0 0 
0 0 0 0 0 0 0 0 0 
0 0 0 0 0 0 0 0 0 
0 0 0 0 0 0 0 0 0 
0 0 0 0 0 0 0 0 0 
0 0 0 0 0 0 0 0 0 
0 0 0 0 0 0 0 0 0 
0 0 0 0 0 0 0 0 0 
0 0 0 0 0 0 0 0 0 
0 0 0 0 0 0 0 0 0 
0 0 0 0 0 0 0 0 0 
0 0 0 0 0 0 0 0 0 
0 0 0 0 0 0 0 0 0 
0 0 0 0 0 0 0 0 0 
0 0 0 0 0 0 0 0 0 
0 0 0 0 0 0 0 0 0 
0 0 0 0 0 0 0 0 0 
0 0 0 0 0 0 0 0 0 
0 0 0 0 0 0 0 0 0 
0 0 0 0 0 0 0 0 0 
0 0 0 8.0394685671e-07 -1.266060446e-09 7.7088984106e-07 9.2112510019e-06 -3.2602627703e-07 6.1598847392e-06 
7.5356589162e-06 8.19876376e-09 3.2657622744e-06 4.8823038531e-06 -2.3210097634e-09 1.7018373206e-06 2.6023607688e-06 -1.8306666771e-09 1.0587651003e-06 
3.4056801549e-07 6.0316346187e-09 5.278844879e-07 3.4030169669e-07 -5.0534103084e-09 5.2397871003e-07 1.1881650241e-06 4.3647975612e-09 8.7078487105e-07 
1.201922838e-06 -2.6812025784e-09 8.7810693076e-07 1.0151371414e-05 -3.2191690884e-07 4.5266101625e-06 9.527907662e-06 -3.5717788986e-07 5.4496265123e-06 
8.922062954e-06 5.4962334781e-08 5.2440753591e-06 8.905924068e-06 -1.8894312579e-07 5.1155554994e-06 6.8844765835e-06 -1.088545448e-08 2.7715255489e-06 
8.0417042365e-06 5.7582968387e-08 3.8342249642e-06 8.5087147913e-06 -2.8881202827e-08 4.5327005271e-06 8.0834619815e-06 9.230121655e-09 3.8578296311e-06 
4.271502582e-06 -1.0684922672e-09 1.4817850016e-06 5.5370849806e-06 7.0759752106e-09 1.9916264737e-06 6.8478205891e-06 2.4688924955e-09 2.7495294291e-06 
6.1921770233e-06 4.931809987e-09 2.3324664173e-06 5.5272479691e-06 -7.2716117137e-10 1.9895398494e-06 2.1106365738e-06 1.6887521422e-09 9.8782222473e-07 
3.1311513208e-06 -1.5234995319e-10 1.1647256213e-06 4.2667646509e-06 -1.6629453654e-09 1.4889639023e-06 3.6843424052e-06 2.898961491e-12 1.3059001695e-06 
3.1292242031e-06 7.5394714631e-10 1.1625065283e-06 1.642475607e-06 -4.0704882272e-09 9.2311278193e-07 2.1015782273e-06 -4.709028457e-09 9.9029599643e-07 
8.3422937662e-06 -2.2041673695e-06 1.1595058326e-05 1.6517952998e-05 -7.1408044179e-05 0.00032180452473 9.5011764016e-06 -7.4748700378e-07 8.2013569749e-06 
9.5090151605e-06 -1.1875592437e-06 6.9920974049e-06 1.3237488925e-05 1.0030820878e-06 9.1778641549e-06 1.8825280265e-05 -6.1706373384e-06 1.6831571613e-06 
0.0001999739383 -0.00014236496987 0.00063106558007 0.00025623176793 0.00010058664584 0.00058442169209 5.3156652027e-06 -1.04072984e-05 0.0001027489234 
-6.4832929869e-07 -1.8066216633e-05 0.00014581643939 1.2580709952e-05 -1.21398285e-05 4.7217845683e-05 0.0027000124221 7.8927295586e-06 0.0038546750056 
0.0015261984016 -3.6768322471e-05 0.0026642334637 0.0014931273454 4.8537642131e-05 0.0029486345054 0.0046040231145 -9.3914363023e-05 0.0050065977251 
0.0048444954211 1.651866745e-05 0.0049683808454 0.0070619647906 -1.8440193304e-06 0.0024978915927 0.0079698583337 -2.7696926547e-05 0.0037556105238 
0.0074311228199 0.00020589985728 0.0038220490897 0.0075609506401 -9.3794354414e-05 0.0041266890106 0.0076405621821 5.3285268346e-06 0.0031647901325 
0.0076529308047 -4.8709045732e-06 0.0032992995424 0.0067299413685 2.3420955774e-06 0.0021699794283 0.0067306116947 -3.6602237536e-06 0.0021684946298 
0.0072037566261 7.4838446217e-06 0.0026632993687 0.007201277997 -9.245094254e-06 0.0026651141073 0.0075159955805 -9.7726257944e-06 0.0028120457424 
0.0063981834244 6.6091434074e-07 0.0008925461433 0.0064021051496 -1.7057083452e-07 0.0013624125569 0.0064016549104 2.6085767339e-07 0.0013621543885 
0.0064075167063 7.6245403139e-07 0.00041840294488 0.0064031230018 1.6916824162e-06 0.00041935394218 0.0058777010557 5.6730609484e-06 -0.00076781386912 
0.0041235913118 3.5946037678e-07 -0.0026190257256 0.0050425548561 -9.6839009898e-08 -0.0017082867949 0.0033995504743 1.8997399416e-07 -0.0032308167685 
0.0061864244306 -5.8269365527e-06 -0.00034238026375 0.0061725616871 5.6820728113e-06 -0.00035306241706 0.0057275336635 1.5357476623e-06 -0.00098616078389 
0.0057197671148 3.6680514788e-06 -0.00097914412869 0.0031283103887 3.8841436123e-07 -0.0034502349294 0.0031280059568 1.6566143312e-07 -0.0034506095754 
0.0035489966402 1.7716465696e-07 -0.0031096689359 0.0035489296826 1.5794620096e-07 -0.0031091006478 0.0039107848284 7.3222279043e-07 -0.0028112035532 
0.0043432510144 -1.3224235828e-06 -0.0024121362775 0.0037599671057 4.3316397768e-07 -0.0029361956026 0.0048009339157 -6.034880387e-07 -0.0019559323628 
0.0052911194338 2.9281220491e-06 -0.0014528743926 0.0045661917457 -7.7235881981e-07 -0.0021935466369 0.0054699345136 5.7642353718e-07 -0.0012471876238 
0.0043432679147 4.8721314713e-07 -0.0024118328125 0.0039113238014 -1.9899355377e-07 -0.0028098250273 0.0052878882011 -2.7613487396e-06 -0.0014483230189 
0.0047979133347 2.9044528546e-07 -0.0019574242995 0.0028629438674 -9.3773618919e-07 -0.004337749041 0.001395830789 -5.3268241263e-05 -0.0018945889194 
0.0034253674263 1.9131535725e-05 -0.0048635608657 0.0032501219717 1.749640781e-06 -0.0060441990358 0.0029152878559 -1.1925862818e-07 -0.0056390450838 
0.0028611854647 -6.5345592706e-07 -0.0040048452538 0.0028610679672 -9.9419793613e-08 -0.0040039877417 0.0028734757921 3.952734869e-07 -0.0046709243026 
0.0028685513238 -1.9344328724e-06 -0.0046729479402 0.00035636400813 0.00015849381044 -0.00094298126863 0.00035537365493 -0.00018149010142 -0.0009122843255 
0.002238729339 6.6068526314e-05 -0.0030967310187 0.0022604553096 -4.2218283644e-05 -0.0030589053881 0.003294143139 2.3246516461e-06 -0.0041200855514 
0.0034227704896 -6.0197962473e-06 -0.0053214983885 0.0029185917984 3.981305558e-05 -0.0034135817038 0.003222479263 2.2536652392e-05 -0.0040803860915 
0.0033238170752 4.9118928922e-06 -0.0059405229856 0.0032087087179 -7.5774652072e-08 -0.0060892656678 0.0034416841696 1.281980776e-05 -0.005334963004 
0.0034024635909 -1.1964431391e-07 -0.0056933188491 0.0033292795191 2.1060357467e-06 -0.0059484214473 0.0029882075719 6.9561129809e-06 -0.0058764070344 
0.002901539282 -3.8877537309e-06 -0.0053278495971 0.0031894478601 -1.9393759593e-06 -0.0060841796372 0.0031036810954 -7.8082960645e-06 -0.006012286746 
0.0029960033107 -6.7290034636e-06 -0.0058729423305 0.0028857981745 -4.312715554e-06 -0.0050033902573 0.0028984453227 4.0999321703e-06 -0.0053284855064 
0 0 0 0 0 0 0 0 0 
0 0 0 0 0 0 0 0 0 
0 0 0 0 0 0 0 0 0 
0 0 0 0 0 0 0 0 0 
0 0 0 0 0 0 0 0 0 
0 0 0 0 0 0 0 0 0 
0 0 0 0 0 0 0 0 0 
0 0 0 0 0 0 0 0 0 
0 0 0 0 0 0 0 0 0 
0 0 0 0 0 0 0.0053976363486 0 -0.0045138138672 
0.0074049448678 0 -0.0026807757285 0.00017836317347 0 -0.00019149829094 0.0037135533792 0 -0.0049138818879 
0.007787018238 0 0.00091231538342 8.7392233558e-06 0 2.6947292707e-06 0.0052267065995 0 -0.0038135504421 
1.2152225988e-06 0 -3.9815549634e-07 0.00099864065407 0 -0.00084487840776 3.182914145e-06 0 -2.2798886478e-08 
0.00053019071517 0 -0.0010011983614 0.0042597079369 0 -0.0052484473984 0.0024777395147 0 -0.0010799629494 
0.0079426471918 0 -0.0013789803645 1.0565188396e-06 0 -1.0541478593e-05 0.0057744215706 0 -0.0027606048166 
0.00074055016695 0 0.00058690230243 0.0040768194759 0 0.00099861751666 2.790327126e-05 0 -7.9526998412e-05 
1.0478850891e-05 0 5.6179167507e-06 0.0041029882272 0 -0.0041192109292 3.1654542702e-06 0 1.2505643116e-08 
9.8192503233e-06 0 -2.518815368e-05 0.0034462741151 0 -0.0032450174099 0.0069964574413 0 -0.0015968859345 
0.0062754351834 0 -0.0040679585182 0.0045002512611 0 -0.0012011239889 0.0076779480397 0 0.0015074060641 
0.0024472191345 0 -0.0044246561182 0.0013979848378 0 -0.0019191928885 9.0819733083e-06 0 7.4875018927e-06 
6.1411605191e-06 0 1.661366516e-06 0.0080127119819 0 -0.00013227182169 0.0037724945093 0 -0.0059221859484 
0.00029130181947 0 -0.00082781735416 1.1791082819e-06 0 -4.3457792108e-07 2.4355817292e-06 0 3.9056592596e-08 
0.0006193286441 0 -0.00041312062348 0.004786709685 0 -0.005176707061 0.0041744447761 0 -0.0030117036945 
0.0046615422705 0 -0.0032148044196 8.8527941632e-07 0 -9.9910205231e-09 4.8998926465e-07 0 -4.5595010761e-07 
0.0061937638634 0 -0.0001994997399 0.0034694449629 0 0.0014834858749 0.0042214475228 0 0.00027585048624 
3.4951320855e-05 0 4.9303545529e-05 0.0052533464402 0 -0.0048010207149 0.0076231038278 0 0.0023299012719 
3.9666242481e-06 0 3.5572925944e-09 -9.2382386573e-07 0 -9.3327506067e-06 1.6256796421e-05 0 7.3333272316e-06 
-1.0330155769e-06 0 -2.0860792473e-06 8.6683100338e-06 0 4.9626513593e-06 -1.7649849988e-06 0 -1.1222386985e-06 
4.6977788111e-07 0 -3.65817226e-07 -8.5073864699e-06 0 -0.00012173092541 4.2309173886e-06 0 7.7853969413e-07 
1.2560930837e-06 0 -3.1156918083e-07 3.5143463654e-05 0 -3.393514072e-05 0.0059519176001 0 -0.003011960037 
-7.2945250273e-07 0 -7.5610909589e-07 -1.0458516631e-06 0 -1.078312705e-06 -8.2374117143e-07 0 -1.0886257505e-06 
2.3463795498e-07 0 -2.5666884923e-07 2.6508850382e-07 0 -3.489882628e-07 3.224790019e-07 0 -2.8926456106e-07 
3.4156757693e-07 0 -9.3621213842e-08 3.7179429384e-07 0 2.3096581953e-07 1.2595816105e-06 0 4.1858370116e-07 
9.0588924287e-06 0 5.7554929265e-06 8.6189769533e-06 0 3.9091040317e-06 8.4144157942e-06 0 4.7129929261e-06 
8.9542938012e-06 0 5.4141520824e-06 9.1463136256e-06 0 5.5986077292e-06 0.00095427703063 0 0.0011303184436 
0.0031204724159 0 0.0025155127496 4.0199220712e-06 0 -8.8131327387e-06 9.7029721421e-05 0 0.00035865501248 
0.00025406350458 0 0.00055791352688 0.00031727381961 0 0.00038786715805 9.6984312896e-06 0 3.5493913664e-05 
0.0072204078511 0 0.003357108803 0.0078021518213 0 0.0026181980406 0.0019608811854 0 0.0012493112301 
0.0051535931076 0 0.0030800668755 0.0060003858599 0 0.0022523357298 0.0070457697072 0 0.0016683490718 
0.0070463520146 0 0.00072018901053 0.0075257479522 0 0.002145617251 0.0067347773969 0 -0.00081265010046 
0.0062304960954 0 -0.0013970785218 0.0072473166541 0 -0.00010321078405 0.0075310527695 0 -0.00080835673504 
0.0078535391645 0 0.00069310815597 0.0034792327233 0 -0.0038947727068 0.0034787186438 0 -0.0045700913107 
0.0039008255102 0 -0.0035543432464 0.0015441637983 0 -0.0022427430514 0.00010168927651 0 -0.00053516474953 
6.2355427267e-05 0 -0.00019762010921 2.0527493031e-07 0 -2.6216047006e-07 2.1029011696e-07 0 -1.6859641332e-07 
6.5030692491e-07 0 -2.463078643e-07 4.9469666828e-07 0 -4.4536860087e-07 1.2490014101e-05 0 7.4514341597e-06 
-1.0089485579e-06 0 -1.0426714902e-06 -8.434479082e-07 0 -6.443397015e-07 -9.9996833557e-07 0 -1.7780877331e-06 
3.3334276597e-06 0 -7.7819932348e-06 2.0521740002e-05 0 -2.9030743355e-06 3.7379422258e-07 0 -5.1446987991e-06 
1.6935340151e-06 0 -5.0770998599e-06 2.7512727267e-05 0 -3.0950734923e-05 0.00013837936845 0 -9.4336167556e-05 
0.00039776355719 0 -0.00010496591514 0.00025523367607 0 -0.00021786033897 0.00091532653289 0 -0.00025141105392 
0.0014742495572 0 -0.00027770006578 0.0014601162853 0 -0.00076922554799 0.0020098742695 0 -0.00030422907416 
0.0027261277309 0 -0.00028794170021 0.0034411267561 0 -0.0011309552925 0.0029111658159 0 -7.9181384457e-05 
0.0030549568906 0 -4.0598172808e-05 0.0061871620279 0 -0.0012292594193 0.0040467612351 0 -0.00037304515609 
0.0072847848313 0 -0.0008016624405 0.0021046125811 0 5.5034137181e-05 0.001847003482 0 6.6349784537e-05 
0.0052716456864 0 6.2009644915e-05 0.0020394432962 0 0.00026137841404 0.0013212543169 0 0.00024392965869 
0.0042867136802 0 0.00058604948903 0.00059387432147 0 0.00017297297618 0.00015144675275 0 0.00011355111629 
0.0013135528575 0 0.00031968872125 0.0038880190367 0 0.0011807692239 7.8851660936e-06 0 5.7197563467e-07 
4.4975778327e-06 0 1.8931248431e-06 1.3356132976e-05 0 3.9010429685e-06 1.7706251376e-05 0 1.1231647749e-05 
2.0008055718e-06 0 3.0624576632e-08 1.5480879873e-06 0 -1.248900381e-07 6.6361479124e-06 0 1.6420079437e-06 
1.6828291587e-06 0 -1.5471123556e-07 1.2861870996e-06 0 -2.09918546e-07 3.5415495299e-06 0 3.0820737985e-08 
7.0262310849e-07 0 -2.0704650071e-07 5.4752591397e-07 0 -2.1861763778e-07 2.0053305278e-06 0 -2.6620172825e-07 
6.5033112421e-07 0 -3.0397044812e-07 4.9135002895e-07 0 -3.1630673303e-07 1.257785601e-06 0 -3.9435315315e-07 
7.9956695951e-07 0 -4.6336592847e-07 6.1270060172e-06 0 1.9715290183e-06 7.3471701473e-06 0 3.1165056247e-06 
7.469081633e-06 0 3.1159365444e-06 4.0314024295e-06 0 1.0081314701e-06 5.1802099652e-06 0 1.4716216033e-06 
5.1355422424e-06 0 1.1058088802e-06 2.1338415657e-06 0 4.3409819868e-07 3.0829593264e-06 0 5.8452751938e-07 
3.2738997687e-06 0 3.4731815321e-07 1.6574277717e-06 0 -1.074214413e-09 0.0078989687496 0 0.0019926590987 
0.0028229402652 0 -0.0053580222954 0.0022644552123 0 -0.0040547049569 0.0013837937595 0 -0.0027984520531 
0.0033067945757 0 -0.0060940146244 0.0031824010963 0 -0.0060353976364 0.0033446731315 0 -0.0055864407458 
0.0034105388702 0 -0.0056461593165 0.0041861474849 0 -0.004697775167 0.0035686473639 0 -0.0051390502102 
0.0040425951542 0 -0.0056596693774 0.004610740739 0 -0.0027402992336 0.0041787821712 0 -0.0031020951114 
0.0043821111528 0 -0.0036671097781 0.0056670244705 0 -0.0020252097498 0.0051860826386 0 -0.0024977503421 
0.0052178577381 0 -0.0030041100942 0.0063817273258 0 -0.0021776191066 1.1708385814e-07 0 -2.942619056e-07 
-1.3520159243e-06 0 -1.5912035224e-06 -1.4620742985e-06 0 -4.9311322992e-06 1.0328136591e-05 0 -1.410773233e-05 
1.1704239941e-06 0 -6.7799110781e-06 1.2440472918e-05 0 -2.3023477736e-05 1.3102038479e-05 0 -2.2246611665e-05 
-7.3440269838e-06 0 -1.814383256e-05 4.8857916213e-05 0 -9.914153242e-05 0.0001705515565 0 -0.00035714671442 
0.0043604456095 0 -0.0044759425128 0.0051151640471 0 -0.0048293030221 0.0046408146308 0 -0.0040949326159 
0.0051142530364 0 -0.0038940427358 0.0039007990838 0 -0.0031658490322 0.0057741105306 0 -0.0037706605141 
0.0058627790304 0 -0.0043005193585 0.0054342061921 0 -0.0047470291404 0.0057518610836 0 -0.0044574881124 
0.0050956372706 0 -0.0050444096904 0.007252442656 0 -0.0022000992589 0.0076754152114 0 -0.0015627340796 
0.0076558812765 0 -0.0021517481996 0.0064742760174 0 -0.002064329504 0.0066306608742 0 -0.0027798418479 
0.006793259829 0 -0.0034339817484 0.0060697006674 0 -0.0034752021772 0.0067591772359 0 -0.0028380942814 
0.0063824538398 0 -0.0036832099453 0.0054372069206 0 -0.0020782911737 0.00029350272069 0 -0.00026921565802 
9.9414080915e-05 0 -7.1396029321e-05 0.00053936668502 0 -0.00055228120889 0.0013045641589 0 -0.0013436284096 
0.0021376861084 0 -0.0018478497952 9.361660222e-06 0 -2.8342096546e-06 2.6677281477e-05 0 -4.7968997113e-05 
2.7091163894e-07 0 -7.7365790371e-06 3.0731045777e-05 0 -3.544732618e-05 0.00031898755705 0 -0.0005557121946 
0.00067817082143 0 -0.00082254201303 9.6518137772e-05 0 -0.00015024158037 0.0024039165177 0 -0.0026798097037 
0.0027197451889 0 -0.0035786399129 0.0036507235393 0 -0.0041495275848 0.0042954272133 0 -0.0051619142433 
0.002011436293 0 -0.0032962307606 0.0030363765446 0 -0.0047500203218 0.0038779725682 0 -0.0056139815214 
0.0043058222089 0 -0.0055904322391 0.0063709948756 0 0.00058271530726 0.0063371337308 0 0.0011415180406 
0.0077413191547 0 0.0016733589519 0.006137449627 0 0.0017749560053 0.0081422885475 0 0.00045420589737 
0.0079937558417 0 0.0012620941968 0.0071865241856 0 0.00031640714276 0.007850847295 0 -0.00011715245974 
7.0281747797e-06 0 1.0715374736e-06 9.9306099475e-06 0 3.2645855418e-06 1.2789725924e-05 0 6.7575020021e-06 
1.2610123769e-05 0 5.1167885792e-06 7.1285627467e-06 0 2.2990773252e-06 4.8865919481e-06 0 7.171845665e-07 
5.472690877e-06 0 7.991344512e-07 1.0148229535e-05 0 5.3144083187e-06 9.2383090486e-06 0 4.0396475883e-06 
0.0057801918735 0 -0.0039700685759 0.0054877748399 0 -0.0033114490928 0.004943680542 0 -0.0035135301802 
0.0046651612702 0 -0.0039663359239 0.0052444611299 0 -0.004323357979 0.0046798084977 0 -0.0044718103479 
1.834186602e-06 0 -3.3941682097e-07 1.7663751806e-06 0 -2.259931618e-07 1.2643553801e-06 0 -4.5134398369e-07 
7.9015017346e-07 0 -4.8717148647e-07 1.1067147846e-06 0 -2.4225088094e-07 8.2931198566e-07 0 -4.0454161221e-07 
0.00040397808292 0 -0.00030682621019 0.0023456543979 0 -0.0018126935213 0.0022416222071 0 -0.0014048630239 