# vtk DataFile Version 4.1
vtk output
ASCII
DATASET UNSTRUCTURED_GRID
POINTS 949 float
-50.4035 -3.55271e-15 -3.85 -50.4035 -3.55271e-15 3.85 -38.605 -4.93315 -3.85 
-38.605 -4.93315 3.85 -31.9679 4.59652 -3.85 -31.9679 4.59652 3.85 
-21 0.45642 -3.85 -21 0.45642 -2.65 -21 0.45642 2.65 
-21 0.45642 3.85 -12.4448 15.4062 -3.85 -18 31.0321 -3.85 
-38.8249 32.9799 -3.85 -55 18.4356 -3.85 -36.5644 23.0321 -3.85 
-12.4448 15.4062 3.85 -18 31.0321 3.85 -38.8249 32.9799 3.85 
-55 18.4356 3.85 -36.5644 23.0321 3.85 -12.4448 15.4062 -2.65 
-1.86303e-15 9.03214 -2.65 -1.86303e-15 9.03214 2.65 -12.4448 15.4062 2.65 
-18 31.0321 -2.65 -18 31.0321 2.65 -5.41091e-15 25.0321 -2.65 
140 25.0321 -2.65 175 25.0321 -2.65 175 9.03214 -2.65 
140 9.03214 -2.65 140 9.03214 2.65 -5.41091e-15 25.0321 2.65 
140 25.0321 2.65 175 25.0321 2.65 175 9.03214 2.65 
-50.4035 -3.55271e-15 0 -38.605 -4.93315 0 -44.2479 -3.31518 -3.85 
-47.4226 -1.83752 -3.85 -41.4661 -4.26252 -3.85 -44.2479 -3.31518 3.85 
-47.4226 -1.83752 3.85 -41.4661 -4.26252 3.85 -31.9679 4.59652 3.10862e-15 
-31.9679 4.59652 -1.925 -31.9679 4.59652 1.925 -42.5535 1.95721 -3.85 
-46.4785 0.978607 -3.85 -37.2607 3.27687 -3.85 -42.5535 1.95721 3.85 
-46.4785 0.978607 3.85 -37.2607 3.27687 3.85 -21 0.45642 -3.25 
-21 0.45642 0 -21 0.45642 3.25 -29.1454 -4.38463 -3.85 
-33.8422 -5.22719 -3.85 -24.7819 -2.45346 -3.85 -29.1454 -4.38463 3.85 
-33.8422 -5.22719 3.85 -24.7819 -2.45346 3.85 -15.2356 8.15215 -3.85 
-17.8238 4.08407 -3.85 -13.6167 11.6932 -3.85 -12.1603 21.2193 -3.85 
-14.1099 26.7032 -3.85 -12.0179 18.2989 -3.85 -12.8666 24.0567 -3.85 
-15.843 29.0581 -3.85 -23.8189 34.053 -3.85 -31.4169 34.9819 -3.85 
-20.7848 32.7826 -3.85 -27.5731 34.8843 -3.85 -35.2178 34.3395 -3.85 
-46.7998 27.7988 -3.85 -42.9669 30.6272 -3.85 -51.2663 23.4381 -3.85 
-47.15 20.3928 -3.85 -51.075 19.4142 -3.85 -41.8572 21.7125 -3.85 
-28.5567 8.19815 -3.85 -27.2961 12.9959 -3.85 -28.4962 17.8092 -3.85 
-31.8616 21.4535 -3.85 -30.0354 6.18246 -3.85 -27.6242 10.5176 -3.85 
-27.5929 15.4781 -3.85 -29.9493 19.8433 -3.85 -34.1136 22.5391 -3.85 
-15.2356 8.15215 3.85 -17.8238 4.08407 3.85 -13.6167 11.6932 3.85 
-12.1603 21.2193 3.85 -14.1099 26.7032 3.85 -12.0179 18.2989 3.85 
-12.8666 24.0567 3.85 -15.843 29.0581 3.85 -23.8189 34.053 3.85 
-31.4169 34.9819 3.85 -20.7848 32.7826 3.85 -27.5731 34.8843 3.85 
-35.2178 34.3395 3.85 -46.7998 27.7988 3.85 -42.9669 30.6272 3.85 
-51.2663 23.4381 3.85 -47.15 20.3928 3.85 -51.075 19.4142 3.85 
-41.8572 21.7125 3.85 -28.5567 8.19815 3.85 -27.2961 12.9959 3.85 
-28.4962 17.8092 3.85 -31.8616 21.4535 3.85 -30.0354 6.18246 3.85 
-27.6242 10.5176 3.85 -27.5929 15.4781 3.85 -29.9493 19.8433 3.85 
-34.1136 22.5391 3.85 -36.5644 23.0321 3.10862e-15 -36.5644 23.0321 -1.925 
-36.5644 23.0321 1.925 -12.4448 15.4062 -3.25 -15.2356 8.15215 -2.65 
-17.8238 4.08407 -2.65 -13.6167 11.6932 -2.65 -1.86303e-15 9.03214 0 
-12.5871 6.26381 -2.65 -6.44398 8.33188 -2.65 -17.0428 3.72109 -2.65 
-12.5871 6.26381 2.65 -6.44398 8.33188 2.65 -17.0428 3.72109 2.65 
-15.2356 8.15215 2.65 -17.8238 4.08407 2.65 -13.6167 11.6932 2.65 
-12.4448 15.4062 3.25 -18 31.0321 -3.25 -12.1603 21.2193 -2.65 
-14.1099 26.7032 -2.65 -12.0179 18.2989 -2.65 -12.8666 24.0567 -2.65 
-15.843 29.0581 -2.65 -18 31.0321 0 -18 31.0321 3.25 
-38.8249 32.9799 0 -55 18.4356 0 -12.1603 21.2193 2.65 
-14.1099 26.7032 2.65 -12.0179 18.2989 2.65 -12.8666 24.0567 2.65 
-15.843 29.0581 2.65 -10.8599 27.0668 -2.65 -14.5655 28.8053 -2.65 
-5.52443 25.5452 -2.65 16.2336 25.0321 -2.65 36.6109 25.0321 -2.65 
57.2887 25.0321 -2.65 77.9665 25.0321 -2.65 98.6444 25.0321 -2.65 
119.322 25.0321 -2.65 8.1168 25.0321 -2.65 26.4223 25.0321 -2.65 
46.9498 25.0321 -2.65 67.6276 25.0321 -2.65 88.3055 25.0321 -2.65 
108.983 25.0321 -2.65 129.661 25.0321 -2.65 157.5 25.0321 -2.65 
148.75 25.0321 -2.65 166.25 25.0321 -2.65 175 17.0321 -2.65 
157.5 9.03214 -2.65 148.75 9.03214 -2.65 166.25 9.03214 -2.65 
16.2336 9.03214 -2.65 36.6109 9.03214 -2.65 57.2887 9.03214 -2.65 
77.9665 9.03214 -2.65 98.6444 9.03214 -2.65 119.322 9.03214 -2.65 
8.1168 9.03214 -2.65 26.4223 9.03214 -2.65 46.9498 9.03214 -2.65 
67.6276 9.03214 -2.65 88.3055 9.03214 -2.65 108.983 9.03214 -2.65 
129.661 9.03214 -2.65 140 9.03214 0 16.2336 9.03214 2.65 
36.6109 9.03214 2.65 57.2887 9.03214 2.65 77.9665 9.03214 2.65 
98.6444 9.03214 2.65 119.322 9.03214 2.65 8.1168 9.03214 2.65 
26.4223 9.03214 2.65 46.9498 9.03214 2.65 67.6276 9.03214 2.65 
88.3055 9.03214 2.65 108.983 9.03214 2.65 129.661 9.03214 2.65 
-10.8599 27.0668 2.65 -14.5655 28.8053 2.65 -5.52443 25.5452 2.65 
16.2336 25.0321 2.65 36.6109 25.0321 2.65 57.2887 25.0321 2.65 
77.9665 25.0321 2.65 98.6444 25.0321 2.65 119.322 25.0321 2.65 
8.1168 25.0321 2.65 26.4223 25.0321 2.65 46.9498 25.0321 2.65 
67.6276 25.0321 2.65 88.3055 25.0321 2.65 108.983 25.0321 2.65 
129.661 25.0321 2.65 157.5 25.0321 2.65 148.75 25.0321 2.65 
166.25 25.0321 2.65 175 17.0321 2.65 157.5 9.03214 2.65 
148.75 9.03214 2.65 166.25 9.03214 2.65 -5.41091e-15 25.0321 0 
140 25.0321 0 175 25.0321 0 175 9.03214 0 
-47.4226 -1.83752 0 -48.9399 -0.962292 -1.925 -48.9399 -0.962292 1.925 
-45.8568 -2.62271 -1.925 -45.8568 -2.62271 1.925 -41.4661 -4.26252 0 
-44.2479 -3.31518 0 -37.2939 3.2686 4.44089e-16 -46.4785 0.978607 4.44089e-16 
-48.441 0.489304 1.925 -48.441 0.489304 -1.925 -44.516 1.46791 -1.925 
-44.516 1.46791 1.925 -34.6309 3.93256 -1.925 -34.6309 3.93256 1.77636e-15 
-39.9237 2.61291 -1.925 -34.6309 3.93256 1.925 -39.9237 2.61291 1.925 
-42.5535 1.95721 0 -24.3476 -2.18783 -0.975449 -27.8167 -3.92622 1.47595 
-33.1414 -5.17417 2.66298 -33.1414 -5.17417 -1.18702 -28.4771 -4.1671 -1.18702 
-28.4771 -4.1671 2.66298 -22.6031 -0.955218 -2.41272 -22.6031 -0.955218 -1.81272 
-26.6738 -3.44516 -2.41272 -22.6031 -0.955218 0.837276 -24.1841 -2.08379 2.06298 
-24.1841 -2.08379 2.66298 -26.0399 -3.14136 0.250252 -24.1863 25.1654 -3.85 
-20.4368 17.327 -3.85 -30.3776 28.1762 -3.85 -22.4249 8.60135 -3.85 
-36.2454 0.329607 -3.85 -18.7494 22.3318 -3.85 -24.1405 20.3083 -3.85 
-27.4917 2.86094 -3.85 -40.8048 27.2992 -3.85 -35.6302 28.201 -3.85 
-17.913 13.4265 -3.85 -27.7609 22.7654 -3.85 -16.3409 17.9422 -3.85 
-22.6555 13.6867 -3.85 -20.7802 28.1616 -3.85 -25.8166 29.6842 -3.85 
-31.8552 -0.302156 -3.85 -24.9375 16.5539 -3.85 -43.4007 -0.678982 -3.85 
-35.2301 -2.61765 -3.85 -30.5003 -2.3434 -3.85 -40.5793 -1.48797 -3.85 
-39.3995 1.14341 -3.85 -37.4252 -2.30177 -3.85 -34.0503 0.0137258 -3.85 
-34.1066 2.46306 -3.85 -28.0242 5.52955 -3.85 -29.7298 3.72873 -3.85 
-31.9115 2.14718 -3.85 -29.6735 1.27939 -3.85 -28.3186 -0.761846 -3.85 
-24.2458 1.65868 -3.85 -21.7125 4.52889 -3.85 -18.8303 8.37675 -3.85 
-24.9583 5.73115 -3.85 -14.3928 16.6742 -3.85 -14.2506 19.5808 -3.85 
-16.5743 10.7893 -3.85 -15.1789 14.4163 -3.85 -17.1269 15.6843 -3.85 
-17.445 27.4324 -3.85 -19.3901 29.5969 -3.85 -22.2995 31.1073 -3.85 
-33.5235 31.5915 -3.85 -37.2276 30.5904 -3.85 -39.8149 30.1395 -3.85 
-43.8023 27.549 -3.85 -38.2175 27.7501 -3.85 -46.9749 24.0958 -3.85 
-36.0973 25.6166 -3.85 -33.7459 24.8273 -3.85 -43.9774 23.846 -3.85 
-38.6846 25.1657 -3.85 -15.4548 21.7756 -3.85 -16.4296 24.5175 -3.85 
-17.5451 20.137 -3.85 -19.7648 25.2467 -3.85 -24.8177 31.8686 -3.85 
-28.6167 32.333 -3.85 -23.2984 28.9229 -3.85 -30.8973 31.5791 -3.85 
-33.0039 28.1886 -3.85 -28.0971 28.9302 -3.85 -24.8605 10.7986 -3.85 
-25.4908 8.39975 -3.85 -26.7168 17.1816 -3.85 -26.1168 14.7749 -3.85 
-24.9758 13.3413 -3.85 -22.5402 11.144 -3.85 -23.7965 15.1203 -3.85 
-29.8113 22.1095 -3.85 -28.1285 20.2873 -3.85 -26.3183 19.0587 -3.85 
-25.9507 21.5368 -3.85 -24.539 18.4311 -3.85 -31.1196 24.8149 -3.85 
-29.0692 25.4708 -3.85 -20.169 11.0139 -3.85 -27.282 26.6708 -3.85 
-25.9736 23.9654 -3.85 -25.0014 27.4248 -3.85 -21.4678 23.7486 -3.85 
-21.4449 21.32 -3.85 -24.1634 22.7368 -3.85 -22.4832 26.6635 -3.85 
-19.5931 19.8294 -3.85 -22.2886 18.8177 -3.85 -18.3888 17.6346 -3.85 
-22.6871 16.9405 -3.85 -19.1749 15.3767 -3.85 -20.2843 13.5566 -3.85 
-21.5461 15.5068 -3.85 -24.1863 25.1654 3.85 -20.4368 17.327 3.85 
-30.3776 28.1762 3.85 -22.4249 8.60135 3.85 -36.2454 0.329607 3.85 
-18.7494 22.3318 3.85 -24.1405 20.3083 3.85 -27.4917 2.86094 3.85 
-40.8048 27.2992 3.85 -35.6302 28.201 3.85 -17.913 13.4265 3.85 
-27.7609 22.7654 3.85 -16.3409 17.9422 3.85 -22.6555 13.6867 3.85 
-20.7802 28.1616 3.85 -25.8166 29.6842 3.85 -31.8552 -0.302156 3.85 
-24.9375 16.5539 3.85 -43.4007 -0.678982 3.85 -30.5003 -2.3434 3.85 
-35.2301 -2.61765 3.85 -40.5793 -1.48797 3.85 -37.4252 -2.30177 3.85 
-39.3995 1.14341 3.85 -34.0503 0.0137258 3.85 -34.1066 2.46306 3.85 
-29.7298 3.72873 3.85 -28.0242 5.52955 3.85 -31.9115 2.14718 3.85 
-29.6735 1.27939 3.85 -24.2458 1.65868 3.85 -28.3186 -0.761846 3.85 
-18.8303 8.37675 3.85 -21.7125 4.52889 3.85 -24.9583 5.73115 3.85 
-14.2506 19.5808 3.85 -14.3928 16.6742 3.85 -15.1789 14.4163 3.85 
-16.5743 10.7893 3.85 -17.1269 15.6843 3.85 -19.3901 29.5969 3.85 
-17.445 27.4324 3.85 -22.2995 31.1073 3.85 -37.2276 30.5904 3.85 
-33.5235 31.5915 3.85 -43.8023 27.549 3.85 -39.8149 30.1395 3.85 
-38.2175 27.7501 3.85 -46.9749 24.0958 3.85 -33.7459 24.8273 3.85 
-36.0973 25.6166 3.85 -38.6846 25.1657 3.85 -43.9774 23.846 3.85 
-16.4296 24.5175 3.85 -15.4548 21.7756 3.85 -17.5451 20.137 3.85 
-19.7648 25.2467 3.85 -28.6167 32.333 3.85 -24.8177 31.8686 3.85 
-23.2984 28.9229 3.85 -33.0039 28.1886 3.85 -30.8973 31.5791 3.85 
-28.0971 28.9302 3.85 -25.4908 8.39975 3.85 -24.8605 10.7986 3.85 
-26.1168 14.7749 3.85 -26.7168 17.1816 3.85 -22.5402 11.144 3.85 
-24.9758 13.3413 3.85 -23.7965 15.1203 3.85 -28.1285 20.2873 3.85 
-29.8113 22.1095 3.85 -25.9507 21.5368 3.85 -26.3183 19.0587 3.85 
-24.539 18.4311 3.85 -31.1196 24.8149 3.85 -29.0692 25.4708 3.85 
-20.169 11.0139 3.85 -25.9736 23.9654 3.85 -27.282 26.6708 3.85 
-25.0014 27.4248 3.85 -24.1634 22.7368 3.85 -21.4449 21.32 3.85 
-21.4678 23.7486 3.85 -22.4832 26.6635 3.85 -22.2886 18.8177 3.85 
[...]
POINT_DATA 949
FIELD FieldData 8
Displacement 3 949 double
0 0 0 0 0 0 -2.4505517103e-09 -3.0626714682e-10 -5.5784165435e-10 
-2.7055666167e-09 -6.2302879794e-10 3.3547702089e-11 0 0 0 0 0 0 
-1.4579888063e-09 -9.3588430629e-09 4.1314997958e-09 -2.0377225277e-09 -9.276044625e-09 4.4486885767e-09 -6.656618271e-09 -9.241815278e-09 4.8057841262e-09 
-7.7525275301e-09 -9.4359647465e-09 5.0320384765e-09 -1.5813492123e-08 -6.7325027285e-09 6.1051294269e-09 1.1316663274e-08 -1.8047774739e-08 -2.2717973987e-08 
1.4737711285e-08 3.2496439096e-09 -2.7838760629e-09 -7.754423482e-09 3.0599253786e-08 9.5500176766e-09 0 0 0 
-1.7977970248e-08 1.8220252162e-10 7.6825622512e-09 2.5320206947e-08 -7.595895104e-09 -2.6612286273e-08 1.9196806045e-08 6.3514191836e-09 -2.4163723134e-09 
-4.4499579512e-09 3.3086812885e-08 9.531516862e-09 0 0 0 -2.6982509919e-08 3.8653889274e-09 5.2241048647e-09 
-1.0667425349e-05 -8.042013075e-06 -3.1584266642e-06 -1.0912464625e-05 -7.6733867954e-06 2.9298790122e-06 -2.4273301786e-08 2.3326004665e-09 8.950530377e-09 
1.3435718289e-08 -1.6430090948e-08 -2.2978366604e-08 2.2194838045e-08 -9.0679624364e-09 -2.6371830209e-08 8.675651821e-06 -7.3868130535e-06 2.2965979754e-06 
2.811752887e-05 -0.00051331650075 7.7016256043e-07 2.8120369039e-05 -0.00064385951927 1.0635630475e-06 -3.1557166315e-05 -0.00064385939708 1.1407151386e-06 
-3.1554561622e-05 -0.00051331643691 8.4694595839e-07 -3.1598991777e-05 -0.00051329088815 8.473084034e-07 9.4819203516e-06 -7.1699514513e-06 -2.7477827384e-06 
2.8073226798e-05 -0.00051329094858 7.6981459971e-07 2.8075919863e-05 -0.00064383396389 1.0635910245e-06 -3.1601630243e-05 -0.00064383383837 1.1407143125e-06 
0 0 0 -2.5695265952e-09 -5.4498462309e-10 -2.8136048945e-10 -1.0686543115e-09 6.8122116147e-11 -3.3249292708e-10 
-4.673712522e-10 6.4264453555e-11 -1.6510276947e-10 -1.70680461e-09 -6.6916710451e-12 -4.7727348605e-10 -1.0812160697e-09 -2.1778123335e-11 1.0114753215e-10 
-4.4234210232e-10 3.830205105e-11 1.0669997643e-10 -1.8159611977e-09 -2.1535776112e-10 6.7470792093e-11 0 0 0 
0 0 0 0 0 0 0 0 0 
0 0 0 0 0 0 0 0 0 
0 0 0 0 0 0 -1.7703784673e-09 -9.3607079855e-09 4.287959763e-09 
-4.5431036636e-09 -9.5699490173e-09 4.5155653878e-09 -7.1601770456e-09 -9.3277526788e-09 4.9214188815e-09 -4.0122364695e-09 -3.9647218311e-09 2.6436294317e-10 
-3.6009400005e-09 -1.650044803e-09 -4.676372521e-10 -3.2914100468e-09 -6.74805336e-09 1.8927227799e-09 -5.6407302348e-09 -4.5119261099e-09 8.3895082597e-10 
-4.4221909957e-09 -2.1035908212e-09 1.397921383e-10 -6.4203447976e-09 -7.1920032969e-09 2.4625159321e-09 1.6834635206e-08 -1.8919558708e-08 2.2307365156e-08 
2.4092787837e-09 -1.1272637293e-08 8.5916047918e-09 -7.7676322332e-09 -1.6288034536e-08 1.0386797979e-08 2.1378960667e-08 -2.6640764503e-08 -1.2029511108e-08 
2.652309426e-09 -2.6937555837e-08 -3.198258992e-08 7.8521587875e-09 -1.8474103409e-08 -2.7694393056e-09 1.0299179131e-08 -3.0017952044e-08 -2.5135338501e-08 
7.4475750882e-09 -2.1828576371e-08 -2.569399035e-08 1.3322875291e-08 -1.1866399065e-08 -1.6591289049e-08 1.490758182e-08 -5.2716644642e-09 -9.071522185e-09 
1.2335444641e-08 -1.4711221058e-08 -1.988034083e-08 1.4265650295e-08 -8.6334096243e-09 -1.2750878837e-08 1.5220785424e-08 -1.3631507446e-09 -5.7346697272e-09 
7.7434953216e-09 1.6982431588e-08 2.9477227253e-09 1.2210595475e-08 1.0248205464e-08 2.7055724838e-10 5.0810595064e-10 2.4423491084e-08 6.3031442821e-09 
-4.5301968342e-09 1.7603082687e-08 5.5328717473e-09 -6.1429362706e-09 2.4110022865e-08 7.5414763752e-09 -2.3959924681e-09 8.924297146e-09 2.5794796618e-09 
5.7861723301e-10 -5.8089195523e-09 -4.3173770045e-10 -4.1993052181e-10 -6.4395998958e-09 9.220311091e-10 1.57503208e-09 -5.6708816844e-09 6.4993573284e-10 
3.4866554269e-09 -4.3911108136e-09 3.3039956694e-10 7.080102679e-10 -3.9730240862e-09 -6.5186717955e-10 -5.7992111163e-12 -6.4742210168e-09 3.5788660331e-10 
1.3920667873e-10 -6.0111132238e-09 1.0279912398e-09 2.8897287168e-09 -5.2095340404e-09 2.7230566051e-10 2.7717060471e-09 -2.7231188596e-09 1.0975339954e-09 
-9.7622465865e-09 -1.1142583867e-08 6.9640263828e-09 -7.7570249362e-09 -1.1279674925e-08 9.6879776157e-09 -1.8315615378e-08 -8.1827837997e-09 1.0525390378e-08 
2.7558218985e-08 -3.3129064437e-09 -1.2715347531e-08 3.0859856853e-08 -7.6009071651e-09 -2.1354837849e-08 1.1635045465e-08 -2.3787737226e-09 -1.1850081764e-09 
3.0137713641e-08 -7.3315387899e-09 -2.1581488933e-08 2.737183737e-08 -7.8497903857e-09 -2.8196742854e-08 2.2316043887e-08 -5.4390433079e-09 -1.7008482161e-08 
2.1246355244e-08 -8.7103845727e-10 -8.9581095196e-09 2.3253649553e-08 -6.7774930778e-09 -2.0954833252e-08 2.1758020882e-08 -3.3401764186e-09 -1.2865550282e-08 
2.0520396016e-08 2.2835373081e-09 -5.3960066797e-09 1.1186280145e-08 1.9548734355e-08 3.0085000688e-09 1.610238345e-08 1.2808671509e-08 5.3032258458e-10 
3.8574138044e-09 2.6940083472e-08 6.3141175032e-09 -1.1978187091e-09 2.002580755e-08 5.526249348e-09 -2.8106178609e-09 2.6613225552e-08 7.5244813217e-09 
5.3651261293e-10 1.1416340689e-08 2.8300474201e-09 -3.2313421678e-09 -4.5260115067e-09 5.6376746271e-10 -2.2787629026e-09 -3.3936762375e-09 2.5858617979e-10 
4.6752734188e-09 1.5327267604e-11 8.1107061422e-10 7.8420751336e-09 1.1846667226e-09 -1.7765909125e-10 -1.8358322241e-09 -3.1983725672e-09 7.8474304417e-10 
-3.4048198347e-09 -4.4067455104e-09 4.06326945e-10 9.3179116045e-10 -1.4131000406e-09 6.487234862e-10 7.1008759587e-09 8.7167550538e-10 4.392168131e-10 
5.8345276358e-09 1.0595191607e-09 -1.8168656829e-09 0 0 0 0 0 0 
0 0 0 -2.0199303478e-08 -2.6302454089e-09 5.8710920837e-09 1.7788252283e-08 -1.8185831681e-08 2.2033205375e-08 
1.0883967488e-09 -1.1398432993e-08 8.2118881517e-09 -1.3143165098e-08 -1.6127972854e-08 1.0442984638e-08 -1.0827339396e-05 -8.168007048e-06 -5.5272786406e-08 
1.7633323832e-08 -3.8601242861e-08 4.2909662511e-08 -1.9374142349e-06 -1.4057797201e-06 -9.1707592197e-07 -1.9690478267e-09 -1.4144747471e-08 5.0581669301e-09 
-4.5324206044e-08 -1.9914505555e-08 -1.2316097017e-08 -1.3382349736e-06 -1.3043328319e-06 9.8453821785e-07 -1.0704967877e-08 -1.3881590293e-08 8.9809285314e-09 
-9.7389495491e-09 -1.2296194164e-08 6.5434121545e-09 -6.8043361083e-09 -1.2266840308e-08 9.5568975783e-09 -2.1719778607e-08 -9.866435158e-09 1.0851126664e-08 
-2.0037157134e-08 5.0312419061e-10 8.1788591044e-09 1.2369390157e-08 -1.7275932378e-08 -2.282403822e-08 2.8722913187e-08 -2.3390344872e-08 -1.1605574923e-08 
5.2295439647e-09 -2.5274376213e-08 -3.2574520689e-08 1.1326794011e-08 -1.1907054595e-08 -1.4361249372e-09 1.464766951e-08 -2.8248615078e-08 -2.5490623176e-08 
9.3282392763e-09 -2.133827794e-08 -2.5587474676e-08 1.6979656529e-08 -1.3950129257e-08 -2.4745119533e-08 2.3625527264e-08 -8.3529234711e-09 -2.6493117085e-08 
1.6882165042e-08 4.902462792e-09 -2.5339510315e-09 -6.1005020566e-09 3.1852419424e-08 9.54311232e-09 3.346331094e-08 -7.0449704129e-09 -1.28287732e-08 
3.2932510193e-08 -9.6214305805e-09 -2.0959561215e-08 1.613375368e-08 -1.4010686257e-09 -1.1645194462e-09 3.2972354833e-08 -1.0232467319e-08 -2.1527555441e-08 
2.6418455006e-08 -1.1832425227e-08 -2.7825683506e-08 6.2200708606e-09 -2.4031107808e-08 -6.2695729396e-08 7.7064046605e-09 -2.2934287046e-08 -3.2824140812e-08 
1.843343979e-06 -1.3772642459e-06 1.0203658769e-06 2.7678322408e-05 -5.2683852482e-05 -2.6340076074e-07 2.8021318769e-05 -0.00012816341456 -1.0507900313e-07 
2.8056050607e-05 -0.00020508059525 7.7674321534e-08 2.8079551867e-05 -0.00028207309159 2.5055826702e-07 2.8097703138e-05 -0.00035911915883 4.2366429686e-07 
2.8110270304e-05 -0.0004362049322 5.9693495674e-07 2.3643229508e-05 -2.5571928704e-05 7.8378131606e-07 2.7962855127e-05 -9.0307646688e-05 -1.7623541687e-07 
2.8042656753e-05 -0.00016660873858 -9.8995874998e-09 2.8068476867e-05 -0.00024356922072 1.6414107675e-07 2.8089267903e-05 -0.00032059032765 3.3702375926e-07 
2.8104681912e-05 -0.00039765790887 5.104006389e-07 2.8114647108e-05 -0.00047475834095 6.8353943013e-07 2.8119954838e-05 -0.00057858709155 9.1680885489e-07 
2.811917344e-05 -0.0005459512489 8.4346412694e-07 2.812030289e-05 -0.00061122325868 9.9018320412e-07 -1.7184002844e-06 -0.00064385939677 1.1021312233e-06 
-3.1556789544e-05 -0.00057858696385 9.9383438562e-07 -3.1556092057e-05 -0.00054595110571 9.2037345255e-07 -3.1557110304e-05 -0.00061122314376 1.0672901994e-06 
-3.1029305616e-05 -5.2710439064e-05 -3.9320492531e-07 -3.1455958022e-05 -0.00012816713661 -2.0085859275e-08 -3.1493013653e-05 -0.00020508071036 1.5243570371e-07 
-3.1516591052e-05 -0.00028207310834 3.2609204147e-07 -3.153458681e-05 -0.0003591191824 4.9971193994e-07 -3.1547320177e-05 -0.00043620493078 6.7347359489e-07 
-2.6459688684e-05 -2.5921306354e-05 -1.8931073074e-06 -3.1371880174e-05 -9.0319479551e-05 -1.6458287431e-07 -3.1478510103e-05 -0.00016660992999 6.5130185226e-08 
-3.1505521228e-05 -0.00024356928123 2.3931229613e-07 -3.1526282454e-05 -0.00032059026229 4.1282353645e-07 -3.1541581271e-05 -0.00039765792937 5.8656775122e-07 
-3.1551627118e-05 -0.00047475834946 7.6022407148e-07 -3.1576781625e-05 -0.00051330369302 8.4712654323e-07 -3.115479123e-05 -5.2680240535e-05 -2.5569466302e-07 
-3.1499417214e-05 -0.00012813539283 -2.1236918858e-08 -3.1537620851e-05 -0.00020505506173 1.5446203648e-07 -3.1560964246e-05 -0.00028204751291 3.276884241e-07 
-3.1579091547e-05 -0.00035909355954 5.0089072675e-07 -3.1591679196e-05 -0.00043617933029 6.7422481354e-07 -2.6528975263e-05 -2.5744709278e-05 1.2276497897e-06 
-3.1456379385e-05 -9.0281750024e-05 -1.1225343929e-07 -3.1522673457e-05 -0.00016658310582 6.7756904912e-08 -3.1549932118e-05 -0.00024354376363 2.41126969e-07 
-3.157072394e-05 -0.00032056475571 4.1421329691e-07 -3.1586108908e-05 -0.0003976323842 5.8753908408e-07 -3.1595987348e-05 -0.00047473272517 7.6077988883e-07 
4.6882132203e-08 2.1058961999e-08 -1.4876520186e-08 3.5546663449e-08 -9.1509049106e-09 -3.0202281397e-08 1.4823666827e-06 -1.2394242385e-06 -1.0358549461e-06 
2.753381381e-05 -5.272451663e-05 -3.9597526776e-07 2.7969803332e-05 -0.00012813963148 -1.0668554032e-07 2.8011768637e-05 -0.00020505534085 7.5634226206e-08 
2.8035182733e-05 -0.00028204753917 2.4895663357e-07 2.805313262e-05 -0.00035909358599 4.2249350223e-07 2.8065902612e-05 -0.00043617933376 5.9616591941e-07 
2.3796043336e-05 -2.5095396077e-05 -2.0028089577e-06 2.7900700933e-05 -9.0295358002e-05 -2.2343764431e-07 2.7995876346e-05 -0.00016658434203 -1.2506014486e-08 
2.802414734e-05 -0.00024354382762 1.6233481908e-07 2.8044881349e-05 -0.0003205646902 3.3563336202e-07 2.8060215609e-05 -0.00039763240459 5.094260491e-07 
2.8070169518e-05 -0.00047473272058 6.8297573957e-07 2.8075489612e-05 -0.00057856153261 9.1674530907e-07 2.8074683612e-05 -0.00054592571134 8.4328675537e-07 
2.8075817951e-05 -0.0006111977244 9.9017740596e-07 -1.7628484596e-06 -0.00064383384634 1.1021435555e-06 -3.1601315766e-05 -0.00057856141479 9.9391672729e-07 
-3.1600495592e-05 -0.00054592560242 9.2058051425e-07 -3.160158764e-05 -0.00061119759475 1.067318714e-06 9.0946673165e-06 -7.423709589e-06 -2.0597687102e-07 
2.8095384895e-05 -0.00051330375442 7.6998877339e-07 2.8098148143e-05 -0.0006438467414 1.063577419e-06 -3.1579399731e-05 -0.00064384661785 1.1407152539e-06 
-4.3503933636e-10 3.0360045474e-12 -2.3232847377e-11 -1.8867269192e-10 8.7664758674e-12 -2.7945237123e-11 -1.8423577879e-10 9.8682079088e-12 1.9509602264e-11 
-7.2638843674e-10 9.5208031938e-12 -1.4385710538e-10 -7.3088685376e-10 -5.7177842386e-12 2.2913563737e-11 -1.7463941056e-09 -1.7909788652e-10 -2.1068737042e-10 
-1.0531177644e-09 -3.4800442389e-11 -1.0598141072e-10 0 0 0 0 0 0 
0 0 0 0 0 0 0 0 0 
0 0 0 0 0 0 0 0 0 
0 0 0 0 0 0 0 0 0 
0 0 0 -4.2816493056e-09 -7.1688266748e-09 2.2516805159e-09 -5.2790347133e-09 -5.2332251486e-09 9.6727809438e-10 
-4.5042073178e-09 -2.3314548929e-09 1.0063857136e-10 -3.9755612375e-09 -2.1371790071e-09 -2.161737819e-10 -4.5907377075e-09 -4.6081093893e-09 5.7436280162e-10 
-5.4922656134e-09 -4.86909317e-09 8.9404828487e-10 -3.124673887e-09 -8.2561312223e-09 3.1380710087e-09 -3.4260837666e-09 -8.2742044261e-09 3.2190758466e-09 
-4.1570290143e-09 -5.6035242674e-09 1.125915933e-09 -5.1314476424e-09 -8.3465637321e-09 3.4067593914e-09 -5.6351809372e-09 -7.4402692759e-09 2.5407403477e-09 
-5.9641942506e-09 -7.4720007433e-09 2.6056098578e-09 -4.9599676537e-09 -6.2090449566e-09 1.5302210628e-09 7.0970070927e-09 -1.098575142e-08 -7.7200915086e-09 
4.8909745996e-10 -1.1156733064e-08 -9.3078795066e-10 8.7000871186e-09 -6.2296879795e-09 -5.2917347438e-09 7.9606456401e-10 -9.8699534264e-09 3.3972195829e-09 
-1.149033785e-09 -3.4674506178e-10 -1.2679278114e-10 6.3672138352e-09 -1.7331769836e-08 -9.4126020495e-09 3.651860787e-09 -9.5027132135e-09 -2.7369904915e-09 
-7.5486279068e-10 -5.4282281122e-09 8.3453784187e-10 7.2062760754e-09 6.7656669543e-09 5.6115572002e-10 8.5963585762e-09 -1.2946929327e-09 -2.0107010079e-09 
-4.9897348679e-09 -1.3528062825e-08 2.6652881e-09 4.9440889647e-09 -7.1925911517e-09 -3.0057270059e-09 1.5263455991e-09 -1.3335438454e-08 -1.4817966628e-09 
-7.8419965758e-10 -9.7728213923e-09 1.4487251989e-09 9.4198240808e-09 -1.4266534702e-08 -1.5586952763e-08 1.0259172092e-08 -1.007976018e-08 -1.0583322942e-08 
-2.1472799854e-09 -2.1094624606e-09 1.0090459345e-10 7.238052676e-10 -8.0087410874e-09 7.1761497481e-11 -6.3522610952e-10 6.4593121696e-11 -1.9760595158e-10 
-2.3859625968e-09 -9.3075376008e-10 -3.1889271123e-10 -3.0259154785e-09 -3.0783623095e-09 1.8517965307e-10 -1.1452268213e-09 1.966607048e-11 -3.1012217833e-10 
-5.0063036174e-10 1.6004505164e-11 -1.2804635037e-10 -1.8845857898e-09 -3.6113370113e-10 -3.499118768e-10 -1.6015835579e-09 -9.904703246e-10 -6.4405624188e-11 
-5.6123951192e-10 -3.5798411256e-10 5.2652525433e-11 3.6165063125e-10 -5.5242204326e-09 2.6130907824e-10 -7.220296172e-10 -3.9188661616e-09 1.0279541877e-10 
-1.2542059551e-09 -1.4660306243e-09 1.56431324e-10 -1.6015653907e-09 -3.6935310085e-09 3.4369198404e-10 -2.460052395e-09 -4.5509538141e-09 6.7960031442e-10 
-8.2049732795e-10 -7.2616246368e-09 2.3513205487e-09 1.0781424355e-09 -9.158259627e-09 4.4924618009e-09 5.5149442574e-09 -1.4426744972e-08 7.8704496412e-09 
3.4467059942e-10 -7.5329336227e-09 1.9355372048e-09 -5.5396358792e-09 -8.6782763288e-09 1.072701463e-10 1.0776256667e-08 -1.6912161886e-08 -4.4406371427e-09 
-1.5892974823e-09 -1.8586641149e-08 8.7170654689e-09 -9.9398350279e-09 -1.4787930984e-08 1.4244518685e-09 -5.0502039061e-09 -1.2786194049e-08 6.8410750209e-10 
6.5204749286e-09 -1.9940434423e-08 -2.0647509113e-08 9.8133956292e-09 -1.6153220882e-08 -1.9177122169e-08 1.0955233805e-08 -1.3218923334e-08 -1.6254722693e-08 
1.2150676514e-08 -3.4033119979e-09 -5.3214473894e-09 1.163392051e-08 9.4373510705e-10 -2.4925147739e-09 1.1283920252e-08 4.9005668926e-09 -1.0243860965e-09 
7.4173020653e-09 1.1812860339e-08 1.7361664005e-09 8.071330903e-09 2.3107686748e-09 -6.5395721905e-10 1.5974911141e-09 1.7314248844e-08 4.2345058615e-09 
5.4052048806e-09 -1.4718127263e-09 -2.0775578425e-10 5.1040377741e-09 -3.2619440374e-09 -7.7630287155e-10 1.1759833773e-09 1.2310547383e-08 2.9330912721e-09 
3.9607793425e-09 3.6203552484e-09 3.6671086983e-10 1.1983671725e-08 -2.2525275273e-08 -1.0503374992e-08 7.342730959e-09 -2.4203595279e-08 -1.7190706525e-08 
6.3325502118e-09 -1.5821166705e-08 -5.233548202e-09 6.8359754836e-09 -1.6844847673e-08 -1.3677796701e-08 1.1671862873e-08 -1.1025919024e-08 -1.3577628775e-08 
1.2291061392e-08 -7.8132221256e-09 -9.8648020218e-09 9.7946014006e-09 -1.2259975882e-08 -1.2732042236e-08 1.1853869325e-08 -5.8799199161e-09 -7.3005497227e-09 
8.5634254869e-09 -3.9847140766e-09 -3.4665919633e-09 9.5369803859e-09 -8.1171465128e-09 -7.7054222302e-09 -1.3245698088e-10 -7.8534531876e-09 1.5867437018e-09 
5.638177325e-10 -7.3248762847e-09 1.4223401157e-09 1.1905788655e-09 -6.767293929e-09 1.8859248827e-10 -1.6503075721e-10 -6.9558478786e-09 8.6580338974e-10 
-5.3668244842e-10 -7.7358629908e-09 1.1855469793e-09 -2.6150082044e-10 -9.996589798e-09 2.5065761764e-09 -2.1943626595e-10 -8.8150128718e-09 6.8790604511e-10 
4.1603481246e-09 -5.6386686094e-09 -1.2454283808e-09 3.3073752676e-09 -6.3445412369e-09 -1.0242075766e-09 2.5581590839e-09 -7.3768398287e-09 -1.0385005847e-09 
4.3928431733e-09 -8.3238279198e-09 -2.9726307217e-09 2.1363861833e-09 -8.6184481187e-09 -1.125646587e-09 5.5823325471e-09 -5.2473277494e-09 -2.3248746487e-09 
6.5937385146e-09 -6.7957302752e-09 -4.2373393926e-09 -4.525381316e-10 -1.289774505e-08 3.8015798621e-09 7.8512137364e-09 -8.5015639032e-09 -6.5505150422e-09 
6.0228353364e-09 -8.9998574436e-09 -5.1341637878e-09 8.6713093524e-09 -1.0608973999e-08 -9.3105069756e-09 6.4292173355e-09 -1.3934224127e-08 -8.5994117549e-09 
4.6870543602e-09 -1.271661471e-08 -5.349947151e-09 5.4641788547e-09 -1.0256167657e-08 -5.1194591266e-09 8.3775631504e-09 -1.2784871056e-08 -1.1191597432e-08 
4.0085508848e-09 -1.3449630144e-08 -4.2519257484e-09 2.4525785736e-09 -1.0401601413e-08 -2.0099848588e-09 6.2978454238e-10 -1.2642530938e-08 -1.3593386693e-09 
7.3988626734e-10 -9.7290970199e-09 -4.7269184555e-10 -2.5328589862e-09 -1.1893173673e-08 8.2333831399e-10 -2.2615960954e-09 -1.1829052961e-08 1.9556040612e-09 
-7.6618480602e-10 -1.0435984957e-08 4.7340956515e-10 1.4591864827e-08 -2.6338861566e-09 -7.9112114677e-09 1.6788005388e-09 -2.2952386337e-09 -3.777026992e-10 
1.4378647305e-08 -8.9974732882e-10 -5.7451728451e-09 -5.5155759765e-09 -7.5203004705e-09 3.348481473e-09 -1.4740066331e-09 -4.817013132e-10 3.2779393419e-11 
1.5581756431e-08 -2.3513066102e-09 -8.485568306e-09 7.6984009612e-09 -2.0391766987e-09 -2.87863642e-09 -3.7551413588e-09 -5.1909592329e-09 1.5010559038e-09 
1.0829834319e-08 9.420664052e-09 4.2492190529e-10 1.281785e-08 1.91982729e-09 -2.4943646328e-09 -9.262681752e-09 -5.17509787e-09 4.6108372564e-09 
1.0052837644e-08 -5.1123234561e-10 -3.1467232581e-09 3.2332367406e-09 7.4650069388e-10 -2.6109765136e-10 -3.1036249731e-09 -4.9322780328e-09 1.7163162667e-09 
2.1329413234e-08 -5.5202676596e-09 -1.5562151791e-08 1.8473599082e-08 -3.3589657486e-09 -1.0867375449e-08 -3.334550869e-09 -2.3870686217e-09 3.6859674655e-10 
1.7983210141e-09 -2.7872545806e-09 -9.5915182322e-12 -6.1309385008e-10 -9.6456607358e-12 7.6133867948e-11 -4.5163253784e-09 -3.4851732781e-09 6.4535341222e-10 
-2.9638145258e-09 -1.2128148914e-09 9.9899618038e-11 -1.2185783913e-09 -1.53721059e-10 6.3710272206e-11 -2.1701209486e-09 -6.0689372542e-10 3.5205908516e-11 
-5.4018697937e-10 -7.0494233295e-11 2.0382812565e-11 -2.2849620721e-09 -1.1575212839e-09 1.4125281732e-10 -1.0164392888e-09 -3.9853377268e-10 2.9407048885e-11 
-2.2978771117e-09 -3.6115012406e-09 7.8205993944e-10 -2.8185826847e-09 -4.6116245352e-09 1.2510233869e-09 -2.1814008889e-09 -1.4327211254e-09 1.4408033135e-10 
-3.5963198795e-09 -3.6136399235e-09 8.1601246312e-10 -5.7227276089e-09 -7.3333818791e-09 2.9188921812e-09 -4.7491621758e-09 -4.8414895387e-09 1.2183369307e-09 
-7.7897678314e-09 -1.0014580995e-08 5.7771050113e-09 -6.1740514486e-09 -8.8114838625e-09 4.6147707115e-09 -4.307533954e-09 -6.3767221597e-09 2.4141144499e-09 
1.6151044223e-08 1.9648092334e-09 -5.998637647e-09 -5.5782666484e-09 3.29690228e-09 4.4214548607e-09 -1.4203216113e-08 -3.5731359375e-09 7.5847074089e-09 
-1.3171742907e-08 -9.4844546425e-09 7.5075640726e-09 -5.2360157148e-09 -2.0098093457e-09 2.8795888726e-09 2.4068019836e-08 -6.7492175025e-09 -2.0699370261e-08 
2.5626842498e-08 -6.7131122595e-09 -2.060318249e-08 2.1870388736e-08 -5.7078875869e-09 -1.6774763243e-08 1.6080200838e-08 4.1883356733e-09 -2.5505584891e-09 
1.7583030526e-08 6.709002264e-10 -5.4591742002e-09 1.09173847e-08 1.4387148052e-08 1.7765130097e-09 1.5381873912e-08 7.7474001652e-09 -9.4341348727e-10 
1.1944544927e-08 5.3140080352e-09 -9.9036353627e-10 4.9181826989e-09 1.9808064728e-08 4.2280351429e-09 8.7953742378e-09 8.4922062466e-10 -2.2139645199e-09 
8.3072538821e-09 1.4855536798e-10 -1.7168277708e-09 6.9012836504e-09 5.8899478931e-09 1.7523530019e-10 4.4325680073e-09 1.4875767634e-08 3.0384766958e-09 