# vtk DataFile Version 4.1
vtk output
ASCII
DATASET UNSTRUCTURED_GRID
POINTS 1420 float
0 0 0 0 -1000 -3.33067e-13 16000 0 0 
16000 -1000 -3.33067e-13 16000 -5.55112e-13 2500 16000 -1000 2500 
11000 -5.55112e-13 2500 11000 -1000 2500 10000 -3.33067e-13 1500 
10000 -1000 1500 9000 -3.33067e-13 1500 9000 -1000 1500 
8000 -5.55112e-13 2500 8000 -1000 2500 7000 -5.55112e-13 2500 
7000 -1000 2500 5000 -1.11022e-12 5000 5000 -1000 5000 
0 -1.11022e-12 5000 0 -1000 5000 0 -500 -1.66533e-13 
16000 -500 -1.66533e-13 1000 0 0 2000 0 0 
3000 0 0 4000 0 0 5000 0 0 
6000 0 0 7000 0 0 8000 0 0 
9000 0 0 10000 0 0 11000 0 0 
12000 0 0 13000 0 0 14000 0 0 
15000 0 0 500 0 0 1500 0 0 
2500 0 0 3500 0 0 4500 0 0 
5500 0 0 6500 0 0 7500 0 0 
8500 0 0 9500 0 0 10500 0 0 
11500 0 0 12500 0 0 13500 0 0 
14500 0 0 15500 0 0 1000 -1000 -3.33067e-13 
2000 -1000 -3.33067e-13 3000 -1000 -3.33067e-13 4000 -1000 -3.33067e-13 
5000 -1000 -3.33067e-13 6000 -1000 -3.33067e-13 7000 -1000 -3.33067e-13 
8000 -1000 -3.33067e-13 9000 -1000 -3.33067e-13 10000 -1000 -3.33067e-13 
11000 -1000 -3.33067e-13 12000 -1000 -3.33067e-13 13000 -1000 -3.33067e-13 
14000 -1000 -3.33067e-13 15000 -1000 -3.33067e-13 500 -1000 -3.33067e-13 
1500 -1000 -3.33067e-13 2500 -1000 -3.33067e-13 3500 -1000 -3.33067e-13 
4500 -1000 -3.33067e-13 5500 -1000 -3.33067e-13 6500 -1000 -3.33067e-13 
7500 -1000 -3.33067e-13 8500 -1000 -3.33067e-13 9500 -1000 -3.33067e-13 
10500 -1000 -3.33067e-13 11500 -1000 -3.33067e-13 12500 -1000 -3.33067e-13 
13500 -1000 -3.33067e-13 14500 -1000 -3.33067e-13 15500 -1000 -3.33067e-13 
16000 -500 2500 16000 -3.70074e-13 1666.67 16000 -1.85037e-13 833.333 
16000 -4.62593e-13 2083.33 16000 -2.77556e-13 1250 16000 -9.25186e-14 416.667 
16000 -1000 1666.67 16000 -1000 833.333 16000 -1000 2083.33 
16000 -1000 1250 16000 -1000 416.667 11000 -500 2500 
12000 -5.55112e-13 2500 13000 -5.55112e-13 2500 14000 -5.55112e-13 2500 
15000 -5.55112e-13 2500 11500 -5.55112e-13 2500 12500 -5.55112e-13 2500 
13500 -5.55112e-13 2500 14500 -5.55112e-13 2500 15500 -5.55112e-13 2500 
12000 -1000 2500 13000 -1000 2500 14000 -1000 2500 
15000 -1000 2500 11500 -1000 2500 12500 -1000 2500 
13500 -1000 2500 14500 -1000 2500 15500 -1000 2500 
10000 -500 1500 10500 -4.44089e-13 2000 10250 -3.88578e-13 1750 
10750 -4.996e-13 2250 10500 -1000 2000 10250 -1000 1750 
10750 -1000 2250 9000 -500 1500 9500 -3.33067e-13 1500 
9500 -1000 1500 8000 -500 2500 8500 -4.44089e-13 2000 
8250 -4.996e-13 2250 8750 -3.88578e-13 1750 8500 -1000 2000 
8250 -1000 2250 8750 -1000 1750 7000 -500 2500 
7500 -5.55112e-13 2500 7500 -1000 2500 5000 -500 5000 
5500 -9.71445e-13 4375 6000 -8.32667e-13 3750 6500 -6.93889e-13 3125 
5250 -1.04083e-12 4687.5 5750 -9.02056e-13 4062.5 6250 -7.63278e-13 3437.5 
6750 -6.245e-13 2812.5 5500 -1000 4375 6000 -1000 3750 
6500 -1000 3125 5250 -1000 4687.5 5750 -1000 4062.5 
6250 -1000 3437.5 6750 -1000 2812.5 0 -500 5000 
1000 -1.11022e-12 5000 2000 -1.11022e-12 5000 3000 -1.11022e-12 5000 
4000 -1.11022e-12 5000 500 -1.11022e-12 5000 1500 -1.11022e-12 5000 
2500 -1.11022e-12 5000 3500 -1.11022e-12 5000 4500 -1.11022e-12 5000 
1000 -1000 5000 2000 -1000 5000 3000 -1000 5000 
4000 -1000 5000 500 -1000 5000 1500 -1000 5000 
2500 -1000 5000 3500 -1000 5000 4500 -1000 5000 
0 -2.22045e-13 1000 0 -4.44089e-13 2000 0 -6.66134e-13 3000 
0 -8.88178e-13 4000 0 -1.11022e-13 500 0 -3.33067e-13 1500 
0 -5.55112e-13 2500 0 -7.77156e-13 3500 0 -9.99201e-13 4500 
0 -1000 1000 0 -1000 2000 0 -1000 3000 
0 -1000 4000 0 -1000 500 0 -1000 1500 
0 -1000 2500 0 -1000 3500 0 -1000 4500 
15500 -500 -1.66533e-13 1500 -500 -1.66533e-13 2500 -500 -1.66533e-13 
3500 -500 -1.66533e-13 4500 -500 -1.66533e-13 5500 -500 -1.66533e-13 
6500 -500 -1.66533e-13 7500 -500 -1.66533e-13 8500 -500 -1.66533e-13 
9500 -500 -1.66533e-13 11500 -500 -1.66533e-13 12500 -500 -1.66533e-13 
13500 -500 -1.66533e-13 14500 -500 -1.66533e-13 10500 -500 -1.66533e-13 
500 -500 -1.66533e-13 250 -250 -8.32667e-14 250 -750 -2.498e-13 
750 -250 -8.32667e-14 750 -750 -2.498e-13 15750 -750 -2.498e-13 
15750 -250 -8.32667e-14 15250 -250 -8.32667e-14 15250 -750 -2.498e-13 
1750 -250 -8.32667e-14 1250 -250 -8.32667e-14 1000 -500 -1.66533e-13 
1250 -750 -2.498e-13 2750 -250 -8.32667e-14 2250 -250 -8.32667e-14 
2000 -500 -1.66533e-13 1750 -750 -2.498e-13 2250 -750 -2.498e-13 
3750 -250 -8.32667e-14 3250 -250 -8.32667e-14 3000 -500 -1.66533e-13 
2750 -750 -2.498e-13 3250 -750 -2.498e-13 4750 -250 -8.32667e-14 
4250 -250 -8.32667e-14 4000 -500 -1.66533e-13 3750 -750 -2.498e-13 
4250 -750 -2.498e-13 5750 -250 -8.32667e-14 5250 -250 -8.32667e-14 
5000 -500 -1.66533e-13 4750 -750 -2.498e-13 5250 -750 -2.498e-13 
6750 -250 -8.32667e-14 6250 -250 -8.32667e-14 6000 -500 -1.66533e-13 
5750 -750 -2.498e-13 6250 -750 -2.498e-13 7750 -250 -8.32667e-14 
7250 -250 -8.32667e-14 7000 -500 -1.66533e-13 6750 -750 -2.498e-13 
7250 -750 -2.498e-13 8750 -250 -8.32667e-14 8250 -250 -8.32667e-14 
8000 -500 -1.66533e-13 7750 -750 -2.498e-13 8250 -750 -2.498e-13 
9750 -250 -8.32667e-14 9250 -250 -8.32667e-14 9000 -500 -1.66533e-13 
8750 -750 -2.498e-13 9250 -750 -2.498e-13 10750 -250 -8.32667e-14 
10250 -250 -8.32667e-14 10000 -500 -1.66533e-13 9750 -750 -2.498e-13 
10250 -750 -2.498e-13 11750 -250 -8.32667e-14 11250 -250 -8.32667e-14 
11000 -500 -1.66533e-13 11250 -750 -2.498e-13 10750 -750 -2.498e-13 
12750 -250 -8.32667e-14 12250 -250 -8.32667e-14 12000 -500 -1.66533e-13 
11750 -750 -2.498e-13 12250 -750 -2.498e-13 13750 -250 -8.32667e-14 
13250 -250 -8.32667e-14 13000 -500 -1.66533e-13 12750 -750 -2.498e-13 
13250 -750 -2.498e-13 14750 -250 -8.32667e-14 14250 -250 -8.32667e-14 
14000 -500 -1.66533e-13 13750 -750 -2.498e-13 14250 -750 -2.498e-13 
15000 -500 -1.66533e-13 14750 -750 -2.498e-13 16000 -500 501.701 
16000 -500 1998.3 16000 -500 1250 16000 -250 250.85 
16000 -750 250.85 16000 -250 667.517 16000 -750 667.517 
16000 -750 2249.15 16000 -250 2249.15 16000 -250 1832.48 
16000 -750 1832.48 16000 -250 1458.33 16000 -250 1041.67 
16000 -500 1624.15 16000 -500 875.85 16000 -750 1041.67 
16000 -750 1458.33 15500 -500 2500 11500 -500 2500 
12500 -500 2500 13500 -500 2500 14500 -500 2500 
15750 -250 2500 15750 -750 2500 15250 -250 2500 
15250 -750 2500 11250 -750 2500 11250 -250 2500 
11750 -250 2500 11750 -750 2500 12750 -750 2500 
12250 -750 2500 12000 -500 2500 12250 -250 2500 
13750 -750 2500 13250 -750 2500 12750 -250 2500 
13000 -500 2500 13250 -250 2500 14750 -750 2500 
14250 -750 2500 13750 -250 2500 14000 -500 2500 
14250 -250 2500 15000 -500 2500 14750 -250 2500 
10650 -500 2150 10330 -500 1830 10825 -250 2325 
10825 -750 2325 10575 -250 2075 10575 -750 2075 
10165 -750 1665 10165 -250 1665 10415 -250 1915 
10415 -750 1915 10490 -500 1990 9500 -500 1500 
9750 -250 1500 9750 -750 1500 9250 -250 1500 
9250 -750 1500 8350 -500 2150 8670 -500 1830 
8835 -250 1665 8835 -750 1665 8585 -250 1915 
8585 -750 1915 8175 -750 2325 8175 -250 2325 
8425 -250 2075 8425 -750 2075 8510 -500 1990 
7500 -500 2500 7750 -250 2500 7750 -750 2500 
7250 -250 2500 7250 -750 2500 6678.57 -500 2901.79 
5750 -500 4062.5 6250 -500 3437.5 5321.43 -500 4598.21 
6839.29 -250 2700.89 6839.29 -750 2700.89 6589.29 -250 3013.39 
6589.29 -750 3013.39 5160.71 -750 4799.11 5160.71 -250 4799.11 
5410.71 -250 4486.61 5410.71 -750 4486.61 5625 -250 4218.75 
5875 -250 3906.25 5535.71 -500 4330.36 6125 -250 3593.75 
6375 -250 3281.25 6000 -500 3750 6464.29 -500 3169.64 
5875 -750 3906.25 5625 -750 4218.75 6375 -750 3281.25 
6125 -750 3593.75 4500 -500 5000 500 -500 5000 
1500 -500 5000 2500 -500 5000 3500 -500 5000 
4750 -250 5000 4750 -750 5000 4250 -250 5000 
4250 -750 5000 250 -750 5000 250 -250 5000 
750 -250 5000 750 -750 5000 1250 -250 5000 
1750 -250 5000 1000 -500 5000 1250 -750 5000 
2250 -250 5000 2750 -250 5000 1750 -750 5000 
2000 -500 5000 2250 -750 5000 3250 -250 5000 
3750 -250 5000 2750 -750 5000 3000 -500 5000 
3250 -750 5000 4000 -500 5000 3750 -750 5000 
0 -500 4500 0 -500 3500 0 -500 2500 
0 -500 500 0 -500 1500 0 -750 250 
0 -250 250 0 -250 750 0 -750 750 
0 -250 4750 0 -750 4750 0 -250 4250 
0 -750 4250 0 -750 1750 0 -750 1250 
0 -500 1000 0 -250 1250 0 -750 2750 
0 -750 2250 0 -250 2250 0 -500 2000 
0 -250 1750 0 -750 3750 0 -750 3250 
0 -250 3250 0 -500 3000 0 -250 2750 
0 -500 4000 0 -250 3750 3804.82 -5.73407e-13 2582.4 
5510.46 -3.9908e-13 1797.29 1857.01 -4.13924e-13 1864.15 2547.62 -7.69518e-13 3465.6 
7598.14 -2.70659e-13 1218.94 11556.5 -2.87882e-13 1296.51 4890.48 -7.21221e-13 3248.09 
14805.6 -2.77556e-13 1250 3044.64 -3.08678e-13 1390.16 13374.6 -2.83646e-13 1277.43 
1214.61 -7.59917e-13 3422.36 3807.9 -8.7561e-13 3943.4 4433.91 -2.05084e-13 923.616 
6163.12 -2.66347e-13 1199.52 1320.02 -2.55702e-13 1151.58 5603.24 -6.38432e-13 2875.24 
9500 -1.66533e-13 750 8265.63 -1.53582e-13 691.67 879.525 -5.8385e-13 2629.43 
10786.3 -1.53737e-13 692.369 4665.83 -9.04816e-13 4074.93 12486.2 -1.71627e-13 772.939 
2142.72 -2.1167e-13 953.276 2902.84 -5.4109e-13 2436.85 6250.65 -4.78152e-13 2153.41 
4650.21 -5.45105e-13 2454.94 5309.02 -2.0813e-13 937.332 7821.97 -4.04559e-13 1821.97 
1771.53 -8.92451e-13 4019.24 1867.37 -6.45499e-13 2907.07 11133.7 -4.04204e-13 1820.37 
12516.6 -3.89818e-13 1755.59 6961.5 -3.55638e-13 1601.65 2970.88 -9.26969e-13 4174.7 
772.866 -9.28005e-13 4179.36 14295.5 -1.729e-13 778.671 14266.5 -3.81984e-13 1720.3 
3616.05 -1.701e-13 766.06 3329.1 -7.04926e-13 3174.71 3876.79 -3.90165e-13 1757.15 
5331.91 -8.13716e-13 3664.65 15268.1 -4.02899e-13 1814.49 15273 -1.52175e-13 685.334 
6896.67 -1.71021e-13 770.21 8900.44 -1.98056e-13 891.963 7552.09 -1.19052e-13 536.164 
10117.8 -1.97137e-13 887.825 4137.89 -7.16644e-13 3227.48 8373.49 -3.0599e-13 1378.05 
11500 -1.1719e-13 527.778 743.795 -3.65542e-13 1646.26 10623.4 -3.1116e-13 1401.34 
666.882 -1.45707e-13 656.208 11641.4 -4.38425e-13 1974.49 1500 -1.15448e-13 519.934 
15488.6 -2.7755e-13 1249.98 533.388 -7.72805e-13 3480.4 13472.5 -4.36165e-13 1964.31 
[...]
POINT_DATA 1420
FIELD FieldData 11
Displacement 3 1420 double
0 0 0 0 0 0 0 0 0 
0 0 0 0 0 0 0 0 0 
-1.1363981538e-05 0 -1.4089060021e-05 -1.1423525625e-05 0 -1.4013078024e-05 -2.795770294e-06 0 4.6479649429e-05 
3.7535304412e-05 0 0.00010725846278 0.0020310649507 0 0.0010077163546 0.0019196018443 0 0.0010542971937 
0.0054174184253 0 0.00013395478067 0.0053689864755 0 0.00017009832786 0.0058176653137 0 0.00010767274579 
0.0059155236471 0 -9.1074941491e-05 0.0041746107407 0 -0.0049919914268 0.0041777598184 0 -0.0049905990945 
0 0 0 0 0 0 0 0 0 
0 0 0 0 0 0 0 0 0 
0 0 0 0 0 0 0 0 0 
0 0 0 0 0 0 0 0 0 
0 0 0 0 0 0 0 0 0 
0 0 0 0 0 0 0 0 0 
0 0 0 0 0 0 0 0 0 
0 0 0 0 0 0 0 0 0 
0 0 0 0 0 0 0 0 0 
0 0 0 0 0 0 0 0 0 
0 0 0 0 0 0 0 0 0 
0 0 0 0 0 0 0 0 0 
0 0 0 0 0 0 0 0 0 
0 0 0 0 0 0 0 0 0 
0 0 0 0 0 0 0 0 0 
0 0 0 0 0 0 0 0 0 
0 0 0 0 0 0 0 0 0 
0 0 0 0 0 0 0 0 0 
0 0 0 0 0 0 0 0 0 
0 0 0 0 0 0 0 0 0 
0 0 0 0 0 0 0 0 0 
0 0 0 0 0 0 0 0 0 
0 0 0 0 0 0 0 0 0 
0 0 0 0 0 0 0 0 0 
0 0 0 0 0 0 0 0 0 
0 0 0 0 0 0 -1.0041689377e-05 -6.535478271e-08 -1.2306558967e-05 
-9.1833554597e-06 0 -1.1717406492e-05 -6.0848389523e-06 0 -1.0670227505e-05 -3.9835247293e-06 0 -9.9540043762e-06 
-2.8812546123e-06 0 -7.9617032788e-06 -1.072735528e-05 0 -1.2722049642e-05 -7.5278054486e-06 0 -1.1075132746e-05 
-4.8897083538e-06 0 -1.0339921013e-05 -3.3510006893e-06 0 -9.2776991661e-06 -1.5462762566e-06 0 -6.9815915492e-06 
-9.1746237436e-06 0 -1.1784595683e-05 -6.1160406282e-06 0 -1.0696379099e-05 -4.0128911085e-06 0 -9.9505269682e-06 
-2.9107531115e-06 0 -8.0043763588e-06 -1.0685876367e-05 0 -1.2752164962e-05 -7.5592544331e-06 0 -1.1117566946e-05 
-4.9051145973e-06 0 -1.0343355604e-05 -3.3431480911e-06 0 -9.2762623118e-06 -1.5731656895e-06 0 -6.9882010024e-06 
1.4952959515e-05 -1.7886896648e-05 0.00010833242841 -9.9551726813e-06 0 -1.5910430522e-05 -1.4268679438e-05 0 1.718214583e-05 
-1.2135573231e-05 0 -1.2437931082e-05 -1.2057760647e-05 0 -2.233949378e-05 -7.7053805276e-06 0 4.8101530163e-05 
-1.3259370442e-05 0 -1.3985457105e-05 0.0019826522041 -0.00013351844006 0.0011031558322 0.0009116692816 0 0.00081069938457 
0.0008118149799 0 0.00071588663339 0.0054107468628 -2.1428688928e-06 0.00014314966283 0.0051335980145 0 1.8773452729e-05 
0.0052847347835 0 2.5951374697e-05 0.0040661325115 0 0.00094810438555 0.0051815873112 0 6.7962419684e-06 
0.0052933560177 0 1.2394761916e-05 0.0039801479263 0 0.00093292765443 0.0058849251024 3.0012652163e-06 -2.6644225547e-05 
0.0055349858627 0 0.00034588229904 0.0055516993677 0 0.00031789075233 0.0041659438577 4.7009546527e-06 -0.0049558910752 
0.0049670577307 0 -0.0042616158915 0.0059625359257 0 -0.0033049062948 0.0070552388545 0 -0.0022338913682 
0.0045324328253 0 -0.0046396276447 0.0054529213191 0 -0.0037752379617 0.0065507117693 0 -0.002834904401 
0.0069486178331 0 -0.0006744966676 0.0049716240757 0 -0.0042553892212 0.0059546042031 0 -0.0032890898106 
0.0070458119883 0 -0.0022066130796 0.00453791407 0 -0.0046330324488 0.0054505496411 0 -0.0037692338672 
0.0065465332317 0 -0.0027923698068 0.0069319292865 0 -0.00070878371918 0 0 0 
0.00027069212069 0 -0.00028312729742 0.0017469367419 0 -0.0017393473443 0.0040756905206 0 -0.0042558657584 
0.0043948813914 0 -0.0056816772158 6.9249590014e-05 0 -7.285766032e-05 0.0007754919762 0 -0.00073877410984 
0.0031099502138 0 -0.0031377142096 0.0044915943071 0 -0.0052071294898 0.0042816576905 0 -0.0054839217333 
0.00030910059867 0 -0.00030757222828 0.0016288450096 0 -0.0017410611252 0.0041524472135 0 -0.0042406197099 
0.0043825682237 0 -0.0056912198069 6.973262693e-05 0 -8.7797992419e-05 0.00070928103211 0 -0.00068428251886 
0.0031854045044 0 -0.0032231626505 0.0045174993749 0 -0.0051817713971 0.004279837293 0 -0.0054742511386 
0 0 0 0 0 0 0 0 0 
0 0 0 0 0 0 0 0 0 
0 0 0 0 0 0 0 0 0 
0 0 0 0 0 0 0 0 0 
0 0 0 0 0 0 0 0 0 
0 0 0 0 0 0 0 0 0 
0 0 0 0 0 0 0 0 0 
0 0 0 0 0 0 0 0 0 
0 0 0 0 0 0 0 0 0 
0 0 0 0 0 0 0 0 0 
0 0 0 0 0 0 0 0 0 
0 0 0 0 0 0 0 0 0 
0 0 0 0 0 0 0 0 0 
0 0 0 0 0 0 0 0 0 
0 0 0 0 0 0 0 0 0 
0 0 0 0 0 0 0 0 0 
0 0 0 0 0 0 0 0 0 
0 0 0 0 0 0 0 0 0 
0 0 0 0 0 0 0 0 0 
0 0 0 0 0 0 0 0 0 
0 0 0 0 0 0 0 0 0 
0 0 0 0 0 0 0 0 0 
0 0 0 0 0 0 0 0 0 
0 0 0 0 0 0 0 0 0 
0 0 0 0 0 0 0 0 0 
0 0 0 0 0 0 0 0 0 
0 0 0 0 0 0 0 0 0 
0 0 0 0 0 0 0 0 0 
0 0 0 0 0 0 0 0 0 
0 0 0 0 0 0 0 0 0 
0 0 0 0 0 0 0 0 0 
0 0 0 0 0 0 0 0 0 
0 0 0 0 0 0 0 0 0 
0 0 0 0 0 0 0 0 0 
0 0 0 0 0 0 0 0 0 
0 0 0 0 0 0 0 0 0 
0 0 0 0 0 0 0 0 0 
0 0 0 0 0 0 0 0 0 
0 0 0 0 0 0 0 0 0 
0 0 0 0 0 0 0 0 0 
0 0 0 0 0 0 0 0 0 
0 0 0 0 0 0 0 0 0 
0 0 0 0 0 0 0 0 0 
0 0 0 -2.2420651512e-06 -3.2428322711e-08 -6.0725381856e-06 -1.0681118101e-05 -2.3022945636e-08 -1.2798121913e-05 
-7.569313596e-06 -2.5647334274e-08 -1.1023730062e-05 -4.9019551123e-06 1.3066266557e-10 -1.0340174999e-05 -3.3448148317e-06 5.3604599476e-09 -9.3088802447e-06 
-1.0176757596e-06 -5.0526674358e-08 -4.7987624854e-06 -1.0259529237e-06 2.3802838319e-08 -4.7920320036e-06 -2.5128582847e-06 4.6692766277e-09 -7.3774604389e-06 
-2.5593873748e-06 1.499367488e-08 -7.3028055142e-06 -1.0839038298e-05 -5.7199109698e-08 -1.3362456881e-05 -1.0979350679e-05 -3.3775849059e-08 -1.334281085e-05 
-1.0049032704e-05 5.2019072907e-09 -1.2243626517e-05 -9.9742257646e-06 -3.0115427411e-08 -1.2201573163e-05 -6.8055971832e-06 -1.2863780302e-08 -1.0868116126e-05 
-8.376938177e-06 1.3248771628e-08 -1.1389904119e-05 -9.2356967188e-06 -2.787092998e-08 -1.182652408e-05 -8.3561109499e-06 -2.7442456421e-08 -1.1370473431e-05 
-4.4280928904e-06 -1.0051751342e-09 -1.0175469618e-05 -5.471192617e-06 -8.7013966941e-09 -1.0517113598e-05 -6.7888586764e-06 -9.5919101383e-09 -1.0844304393e-05 
-6.0944632647e-06 -1.1344249167e-08 -1.0687687305e-05 -5.4630719131e-06 -2.5457997374e-09 -1.0505852886e-05 -3.0952213488e-06 1.4792141101e-09 -8.7622695894e-06 
-3.6490565185e-06 -4.4102483916e-10 -9.6730381731e-06 -4.4057649163e-06 2.3628040996e-09 -1.0175305419e-05 -3.9976789878e-06 -3.4935752644e-10 -9.9475670729e-06 
-3.638703579e-06 -6.7034353125e-09 -9.6628432447e-06 -2.84642273e-06 3.9108029909e-08 -8.0825285021e-06 -3.082674782e-06 1.3574711608e-08 -8.7605879502e-06 
-5.307115514e-06 -1.0119577748e-06 -9.0298947206e-06 8.8672459346e-07 -6.8344978813e-07 -9.3560204762e-06 -1.0262120655e-05 2.5823902769e-07 -1.2013817037e-05 
-1.0576898605e-05 -1.1783312954e-06 -1.177605053e-05 -1.0496774559e-05 -3.3882952563e-07 -1.1521981097e-05 -1.0300268487e-05 -1.0239659965e-06 -1.4483261673e-05 
3.9113024804e-06 -5.2066996321e-06 2.4271116109e-05 -8.248740663e-06 4.5032243947e-06 6.3943966983e-06 -1.306273137e-05 -1.5797114691e-07 -8.1160731171e-06 
-1.1975887042e-05 2.2740634516e-07 -1.0465299073e-05 -2.8649522391e-06 -4.065442412e-07 -5.7256858105e-06 0.00037817237157 -3.3958090381e-05 0.00053108602655 
0.00014557593163 -1.5160667788e-06 0.00024856369676 0.00018997031985 -4.5312507608e-05 0.00030396209341 0.0011110601346 4.9004622143e-05 0.00076659088261 
0.0011077168219 -4.088301817e-05 0.00076304087434 0.0054067690522 -1.7395076211e-05 -4.1763969391e-05 0.004597012876 -3.8507688541e-05 0.0010608055824 
0.0032636686529 5.2032243349e-05 0.00090976299334 0.0031841798299 -3.4185824938e-05 0.0011256750064 0.0047532236138 -4.6500096429e-05 0.00059120449547 
0.0047345034382 3.6234910551e-05 0.0007233539846 0.0053557572873 2.1211284361e-06 7.3539855969e-05 0.0053603750141 -2.6395973729e-05 5.0293376409e-05 
0.0051402924501 4.2363240751e-05 -2.8300586427e-05 0.005126707367 -7.7739585209e-05 -8.1593484743e-05 0.0051011953331 -5.5874456911e-05 8.8454625367e-05 
0.0053922346169 2.0891972156e-05 0.00038329664294 0.0054042290152 1.0707789452e-05 0.00026484832727 0.0053835079151 8.9998838654e-06 0.00026825135269 
0.0055755246619 3.648535123e-05 0.00028375820878 0.005629188054 1.0511596892e-05 0.00024650727965 0.0069823870733 3.8172862988e-05 -0.0014363722746 
0.0054398061122 1.4014300544e-06 -0.00377515409 0.0064997841338 9.7209059286e-06 -0.0027452772487 0.0046299457559 3.8089850655e-06 -0.0044854524868 
0.0069179688731 -3.5742192661e-05 -0.00027374188892 0.0068674925935 8.4869011823e-06 -0.00040549835338 0.0071529738947 9.145742781e-06 -0.0018743266515 
0.0071200092129 3.4659463108e-05 -0.0018403262714 0.0043833965131 7.6009126078e-07 -0.0047558272977 0.0043778688048 3.7754564208e-06 -0.0047590350239 
0.0048030415038 6.751826944e-07 -0.0043932111972 0.0048054678479 1.1440566326e-06 -0.0043861274236 0.0052036760601 -2.8448309896e-06 -0.0040197221367 
0.0057026442746 1.6280344093e-06 -0.0035414332674 0.0050120736422 3.0449814898e-06 -0.0041724121271 0.0062451773581 -1.982161387e-06 -0.0030490581454 
0.0067757786454 2.2915069463e-05 -0.0025160754294 0.0059563062231 1.1810730323e-06 -0.0032756159885 0.0069249029332 3.8193145788e-06 -0.0021319013768 
0.005702847755 7.7454863372e-08 -0.0035329621774 0.0052035455837 4.250540185e-06 -0.0040181135282 0.0067759149917 -3.0561285008e-05 -0.0024843527633 
0.0062356629599 7.7230621137e-06 -0.0030342757536 0.0042073261815 3.4427367299e-06 -0.005423039107 3.7369218117e-05 2.8702238967e-06 -5.5384880037e-05 
0.00072049792268 3.4707859091e-07 -0.0006149963416 0.0030718480239 9.6606213446e-06 -0.0031854898995 0.004496933742 1.5747187293e-05 -0.0052255784765 
0.0042016489007 9.5971595414e-07 -0.0052520758319 0.0042029312254 2.139848714e-06 -0.0052420622791 0.0043050822917 -4.5224084482e-06 -0.0056409493448 
0.0043041351758 2.6128386913e-06 -0.0056499290301 -2.865877854e-06 9.5098159627e-06 4.04406901e-05 4.7483957919e-06 1.8841055528e-06 4.1872261204e-05 
0.00014617363443 -1.0530349559e-05 -0.0001790637791 0.00015590884305 4.2863294761e-06 -0.00019939890624 0.00046560158334 1.9014231472e-05 -0.00047765712328 
0.0011652963215 7.2117972385e-07 -0.0011529698993 0.00030592378012 1.3588307609e-05 -0.00030693653486 0.00048699925568 -7.459907613e-06 -0.00047311103294 
0.0023564723944 -2.505254028e-05 -0.002324487117 0.0036406596952 8.2235850915e-06 -0.0037902260899 0.0010932119303 4.6413320505e-06 -0.0010814791156 
0.0016512890616 -2.0246179582e-05 -0.0017405432477 0.0023253870154 1.919760163e-05 -0.002342037677 0.0044113328689 -1.4367511485e-05 -0.0047093192532 
0.0044610705145 7.3963779759e-06 -0.0055353994483 0.0037100809509 8.4550901921e-06 -0.0038257276604 0.0041398867349 4.0188157738e-05 -0.004265363131 
0.0044162427906 2.0783241636e-05 -0.0047055880014 0.0043985771651 8.235465297e-06 -0.0056773124689 0.0044651658636 6.0273239279e-06 -0.0055392008254 
0 0 0 0 0 0 0 0 0 
0 0 0 0 0 0 0 0 0 
0 0 0 0 0 0 0 0 0 
0 0 0 0 0 0 0 0 0 
0 0 0 0 0 0 0 0 0 
0 0 0 0 0 0 0 0 0 
0 0 0 0 0 0 0 0 0 
0 0 0 0 0 0 0 0 0 
0 0 0 0 0 0 0 0 0 
0 0 0 0 0 0 0.00081713041484 0 -0.00066908335228 
0.0017466428398 0 -0.00092721324104 -5.2432545432e-06 0 -2.2838866114e-05 0.00017605142554 0 -0.00023197259863 
0.0013800484711 0 0.0001587422934 -7.81466373e-06 0 -6.1047431673e-06 0.0054768776455 0 -0.0040876773529 
-1.7010493907e-07 0 -5.6344107041e-06 -1.8955649648e-06 0 -1.5509768727e-05 -2.9092693309e-06 0 -6.5490621057e-06 
1.3413225388e-05 0 -1.9195807881e-05 0.0039996942077 0 -0.0044428300841 1.1111528875e-05 0 1.1119064553e-06 
0.00046746355741 0 -0.0001528286676 -5.3486423106e-06 0 -9.3990363664e-06 0.0061627495651 0 -0.0032323021994 
1.1186900636e-06 0 2.3458825117e-06 4.913488923e-05 0 2.1634212853e-06 2.4414343342e-06 0 -7.240899744e-06 
-7.572032921e-07 0 6.6633920342e-07 0.0051993154942 0 -0.0051593343989 -3.0767249433e-06 0 -4.1658461409e-06 
-3.3949994724e-06 0 -1.0421074605e-05 2.2189618989e-05 0 -5.3592939659e-05 0.0050808625996 0 -0.0018080411336 
0.002350285642 0 -0.0015998355597 8.8569263165e-05 0 -2.9279463355e-05 0.0045424565763 0 0.00014647224404 
0.00012869868093 0 -0.00013758309982 8.749551188e-06 0 -2.4335769775e-05 -1.3054132436e-05 0 -9.8394950197e-06 
-6.2064497862e-06 0 -8.5917598182e-06 0.0035938497306 0 -0.00032098091185 0.0020197263505 0 -0.0024834766116 
9.4021544722e-08 0 -2.0438070173e-05 -2.1982967905e-07 0 -4.0727436766e-06 -2.1167639693e-06 0 -7.9524285996e-06 
6.5479336549e-06 0 -8.4379058049e-06 0.00090387488913 0 -0.0010327013349 4.7449082153e-05 0 -5.0370113819e-05 
0.0059490111293 0 -0.0043299837678 -8.1918974346e-07 0 -5.9379975477e-06 9.2222031749e-07 0 -2.7961833449e-06 
0.00019487307529 0 -1.6015277621e-05 9.0911154183e-05 0 -4.4238777974e-06 7.2835019782e-05 0 1.1451909987e-06 
1.30981194e-05 0 8.8714517356e-06 0.0034602013255 0 -0.0030123233127 0.002126804885 0 0.00011952621719 
-1.9904786988e-06 0 -2.1943684028e-06 -3.1897456115e-06 0 -6.9196404779e-06 -2.2119141491e-05 0 -4.6190318059e-06 
-3.3003984023e-06 0 -4.2177786973e-06 -9.5513954241e-06 0 -1.0267479935e-05 -3.5410263715e-06 0 -5.1500295974e-06 
3.3015020475e-07 0 -3.6013222204e-06 -2.6026838602e-06 0 -1.3094330269e-05 -4.2295809262e-06 0 -9.080952743e-06 
-9.9623426742e-07 0 -2.9044103438e-06 -8.6627852137e-07 0 -6.9919805654e-06 0.00028826984809 0 -0.00014642948097 
-1.8414197267e-06 0 -2.0316814784e-06 -2.518554418e-06 0 -2.5184387603e-06 -1.8786792497e-06 0 -2.954801803e-06 
8.336160604e-07 0 -1.2709562476e-06 6.9603994145e-07 0 -2.0276613746e-06 7.660045188e-07 0 -1.5486118009e-06 
-4.400358343e-08 0 -3.624878046e-06 -7.4989947096e-07 0 -4.7138311304e-06 -1.853063642e-06 0 -7.1893819643e-06 
-1.199381714e-05 0 -1.3071808769e-05 -1.4591018572e-05 0 -1.3699855583e-05 -9.3256186426e-06 0 -1.1107569396e-05 
-1.1101434107e-05 0 -1.2534375743e-05 -1.1008107676e-05 0 -1.01702959e-05 -1.236377945e-05 0 -1.5326303465e-05 
0.00045008927652 0 0.000244714945 -1.9490491281e-05 0 -1.5681204875e-05 -3.6036477312e-05 0 -8.5246561388e-06 
-3.494590801e-05 0 -1.6254383745e-05 4.0865820777e-06 0 -7.4307223595e-06 -1.4530629733e-05 0 5.3906919573e-06 
0.0023093388007 0 0.00036194225987 0.0038489256849 0 9.025388881e-05 2.226874465e-05 0 4.6242490519e-05 
0.00097966381424 0 0.00026936418123 0.00094484645249 0 0.00012365992003 0.0051540869489 0 0.00015787155963 
0.0052432499902 0 0.00014805130297 0.0047410721938 0 0.00015077225884 0.0058170624524 0 -0.0013522958046 
0.0065293760507 0 -0.0021805901994 0.0051876461409 0 -0.00029591621607 0.0044442586558 0 -0.001195245884 
0.0041393811558 0 8.866242812e-05 0.0046844239497 0 -0.0051827154153 0.0045498245049 0 -0.0055586224693 
0.005152311111 0 -0.0048269272325 2.9733983804e-05 0 -6.829452872e-05 -9.9911920247e-06 0 -3.4987528901e-06 
1.5391671397e-06 0 -4.3673936906e-06 4.3139490016e-07 0 -1.8280179238e-06 2.189974877e-07 0 -2.3583125005e-06 
-7.3624273424e-08 0 -4.7227360536e-06 6.6439997968e-07 0 -3.3585320203e-06 -1.5399944293e-05 0 -8.8885982547e-06 
-2.2685401942e-06 0 -2.3590299323e-06 -1.7949184028e-06 0 -2.6237223639e-06 -3.8086205709e-06 0 -4.6922151787e-06 
-1.2473964233e-06 0 -3.2919800928e-06 -4.8779139088e-07 0 -3.2655986998e-06 -3.8318188005e-06 0 -7.690268011e-06 
-2.3968122597e-06 0 -5.055107568e-06 -2.2363109504e-06 0 -8.678636252e-06 5.0798884212e-07 0 -3.8047618616e-06 
5.5902154996e-07 0 -3.7125117477e-06 2.1763469522e-06 0 -7.5902719816e-06 -2.0082472198e-06 0 1.5304998386e-07 
-9.139936085e-06 0 -6.536667075e-06 7.5129106182e-06 0 -2.38898546e-07 3.769793172e-06 0 -5.3897275541e-06 
4.6749160504e-06 0 -8.2531728008e-06 3.2959449896e-05 0 -3.673297776e-05 2.5684946126e-05 0 -5.0803996768e-06 
3.9276556675e-05 0 -6.2171882268e-06 0.00023526344544 0 -0.00010505906501 7.4306807792e-05 0 -3.6401480127e-05 
0.00034604075119 0 -3.9280512073e-05 2.0210304507e-05 0 -1.29335899e-06 2.3546950295e-05 0 -1.1469749228e-06 
0.00012449375246 0 -8.6770138655e-06 2.371874491e-05 0 -1.8304674243e-07 1.7345291788e-05 0 -1.2697966116e-06 
4.7071126743e-05 0 6.0515678241e-06 8.0196611446e-06 0 7.6040552961e-06 3.5979476828e-06 0 -3.7844146534e-06 
2.8189561406e-05 0 -8.6571845595e-06 7.296727666e-05 0 -4.3417156105e-06 1.102363054e-06 0 -1.6391011631e-06 
-1.6112923617e-07 0 -3.7687669538e-07 5.2605741587e-06 0 2.6750122352e-06 4.5570628139e-06 0 4.3895840253e-07 
-7.5155186971e-07 0 -1.198062095e-06 -1.0145606983e-06 0 -1.2677548243e-06 -1.6443317098e-06 0 -1.5155564657e-06 
-1.7551129754e-06 0 -1.9730646743e-06 -1.3294249548e-06 0 -2.094558676e-06 -3.0869595119e-06 0 -3.0531177294e-06 
-6.1900094533e-07 0 -1.4541603996e-06 -2.5731572401e-07 0 -1.4419938114e-06 -1.9139793154e-06 0 -3.5078758754e-06 
-2.5117147486e-08 0 -2.0562827945e-06 4.7479725398e-07 0 -1.9936424105e-06 -6.8158157707e-07 0 -3.5088289361e-06 
4.8828436138e-07 0 -3.541236104e-06 -6.2566340021e-06 0 -9.826725061e-06 -7.6987409906e-06 0 -1.0182995273e-05 
-7.7459548346e-06 0 -9.3328826121e-06 -4.1078849683e-06 0 -9.680475586e-06 -5.1968966228e-06 0 -9.9048009823e-06 
-5.1486618734e-06 0 -8.8584509968e-06 -2.3643802818e-06 0 -8.4572386366e-06 -3.1728989086e-06 0 -9.1451115925e-06 
-3.1492958978e-06 0 -8.5698566085e-06 -1.3873879625e-06 0 -7.3709154861e-06 0.0034810737061 0 0.00012325055117 
0.00062295671831 0 -0.00060416659407 0.00020661773673 0 -0.0002234209592 2.0661683853e-05 0 -4.8792969463e-05 
0.0031267734907 0 -0.0034915010893 0.0018644401615 0 -0.001981279997 0.0006824323 0 -0.00077421062096 
0.0038339281733 0 -0.0049111096077 0.0047800330648 0 -0.0050478053326 0.0042738152669 0 -0.0054341331942 
0.0030008060466 0 -0.0036086571065 0.0060192964933 0 -0.0039003088436 0.0054829093366 0 -0.0043580129193 
0.0055378057491 0 -0.0048022225225 0.0067612693035 0 -0.0029334358944 0.0065107528179 0 -0.0034997890053 
0.0062437136112 0 -0.003866408371 0.0057417886318 0 -0.0025862959304 -1.4733833998e-06 0 -4.3636677253e-06 
-1.9454801684e-06 0 -3.88080506e-06 -3.4776270932e-06 0 -5.7662321438e-06 1.3912518956e-06 0 -7.0323040971e-06 
-6.3778679428e-07 0 -4.9080613907e-06 -2.9007138829e-06 0 -6.9108408653e-06 -9.0473874131e-07 0 -4.4948848769e-06 
-8.5929562186e-07 0 -7.173022129e-06 2.7806777371e-06 0 -9.9293436852e-06 -3.4398453939e-06 0 -1.7531877413e-05 
0.00022373473794 0 -0.00022514535391 0.00092771340968 0 -0.00086680120801 0.00016214372387 0 -0.00016588582826 
0.00022033922761 0 -0.00019482186435 3.6295033124e-05 0 -5.1756151265e-05 0.00059601977264 0 -0.00048719425602 
0.0014991900336 0 -0.0011879708997 0.0019725395774 0 -0.0016724523341 0.00296266821 0 -0.0023272651531 
0.0020743274258 0 -0.002072099314 0.0035145876114 0 -0.0014630788105 0.0028364527356 0 -0.00093977070749 
0.0012738924355 0 -0.00031237855607 0.00053537644695 0 -0.00029315405838 0.004377177158 0 -0.0022080713074 
0.0022373430228 0 -0.0012204608564 0.0045640831669 0 -0.0027614166328 0.00088302352073 0 -0.00054272487818 
0.0011591173851 0 -0.0006538137417 0.00014183695466 0 -9.6358916158e-05 -2.2859082868e-06 0 -1.2621559235e-05 
-4.2717943023e-06 0 -1.6395452562e-05 -3.5004778077e-06 0 -1.6847577601e-05 -6.2357155426e-06 0 -2.2736081012e-05 
4.1391630439e-06 0 -2.7661477997e-05 -4.8882394886e-06 0 -1.0711582595e-05 -6.3167571466e-06 0 -1.4724300645e-05 
-4.5550871893e-06 0 -8.1899295205e-06 -5.1328157419e-06 0 -1.1605311179e-05 4.3211208013e-06 0 -1.152606096e-05 
-5.6015541736e-06 0 -2.3186520419e-05 -3.7749332747e-06 0 -1.3003389378e-05 -4.7949517478e-07 0 -4.0559161554e-05 
1.941966502e-05 0 -4.9131922987e-05 7.1377431235e-05 0 -0.00012597514354 0.00044858475292 0 -0.00059755358975 
2.543411729e-05 0 -2.8491871036e-05 0.00016048060498 0 -0.00015352561866 0.00099353554475 0 -0.0010887154736 
0.0015774573076 0 -0.0017708993373 0.00037726265899 0 6.298819253e-05 0.00046537938791 0 4.656218667e-05 
0.0017802762608 0 1.89543461e-05 0.00068489535187 0 3.0610179766e-05 0.0024688266888 0 1.0164271282e-06 
0.0031687947269 0 0.00013119544311 0.00068828773023 0 -1.1719861783e-05 0.0013288815572 0 -0.00015349455694 
-5.5459013273e-06 0 -3.6745232107e-06 -6.4952984076e-06 0 -2.6831501543e-06 -7.817754137e-06 0 1.306478288e-06 
-1.1983457501e-05 0 -4.5897515684e-06 -7.0648958576e-06 0 -7.6579404157e-06 -4.77279881e-06 0 -6.4309650983e-06 
-4.983270938e-06 0 -4.9945602561e-06 -1.0535386091e-05 0 -7.2193159508e-06 -9.3493682769e-06 0 -8.3371942114e-06 
0.0041261788728 0 -0.0030303210725 0.0058277700671 0 -0.0037275706117 0.005880115414 0 -0.0043320204218 